+ 1 0 4 cbr 1000 ------- 0 0.1 1073741824.0 0 0
- 1 0 4 cbr 1000 ------- 0 0.1 1073741824.0 0 0
+ 1 0 1 cbr 1000 ------- 0 0.1 1073741824.0 0 0
- 1 0 1 cbr 1000 ------- 0 0.1 1073741824.0 0 0
+ 1 0 2 cbr 1000 ------- 0 0.1 1073741824.0 0 0
- 1 0 2 cbr 1000 ------- 0 0.1 1073741824.0 0 0
+ 1 0 3 cbr 1000 ------- 0 0.1 1073741824.0 0 0
- 1 0 3 cbr 1000 ------- 0 0.1 1073741824.0 0 0
+ 1.008 0 4 cbr 1000 ------- 0 0.1 1073741824.0 1 1
- 1.008 0 4 cbr 1000 ------- 0 0.1 1073741824.0 1 1
+ 1.008 0 1 cbr 1000 ------- 0 0.1 1073741824.0 1 1
- 1.008 0 1 cbr 1000 ------- 0 0.1 1073741824.0 1 1
+ 1.008 0 2 cbr 1000 ------- 0 0.1 1073741824.0 1 1
- 1.008 0 2 cbr 1000 ------- 0 0.1 1073741824.0 1 1
+ 1.008 0 3 cbr 1000 ------- 0 0.1 1073741824.0 1 1
- 1.008 0 3 cbr 1000 ------- 0 0.1 1073741824.0 1 1
r 1.01008 0 4 cbr 1000 ------- 0 0.1 1073741824.0 0 0
+ 1.01008 4 0 prune 80 ------- 30 4.0 0.0 -1 2
- 1.01008 4 0 prune 80 ------- 30 4.0 0.0 -1 2
r 1.01008 0 1 cbr 1000 ------- 0 0.1 1073741824.0 0 0
+ 1.01008 1 0 prune 80 ------- 30 1.0 0.0 -1 3
- 1.01008 1 0 prune 80 ------- 30 1.0 0.0 -1 3
r 1.01008 0 2 cbr 1000 ------- 0 0.1 1073741824.0 0 0
+ 1.01008 2 0 prune 80 ------- 30 2.0 0.0 -1 4
- 1.01008 2 0 prune 80 ------- 30 2.0 0.0 -1 4
r 1.01008 0 3 cbr 1000 ------- 0 0.1 1073741824.0 0 0
+ 1.01008 3 0 prune 80 ------- 30 3.0 0.0 -1 5
- 1.01008 3 0 prune 80 ------- 30 3.0 0.0 -1 5
+ 1.016 0 4 cbr 1000 ------- 0 0.1 1073741824.0 2 6
- 1.016 0 4 cbr 1000 ------- 0 0.1 1073741824.0 2 6
+ 1.016 0 1 cbr 1000 ------- 0 0.1 1073741824.0 2 6
- 1.016 0 1 cbr 1000 ------- 0 0.1 1073741824.0 2 6
+ 1.016 0 2 cbr 1000 ------- 0 0.1 1073741824.0 2 6
- 1.016 0 2 cbr 1000 ------- 0 0.1 1073741824.0 2 6
+ 1.016 0 3 cbr 1000 ------- 0 0.1 1073741824.0 2 6
- 1.016 0 3 cbr 1000 ------- 0 0.1 1073741824.0 2 6
r 1.01808 0 4 cbr 1000 ------- 0 0.1 1073741824.0 1 1
+ 1.01808 4 0 prune 80 ------- 30 4.0 0.0 -1 7
- 1.01808 4 0 prune 80 ------- 30 4.0 0.0 -1 7
r 1.01808 0 1 cbr 1000 ------- 0 0.1 1073741824.0 1 1
+ 1.01808 1 0 prune 80 ------- 30 1.0 0.0 -1 8
- 1.01808 1 0 prune 80 ------- 30 1.0 0.0 -1 8
r 1.01808 0 2 cbr 1000 ------- 0 0.1 1073741824.0 1 1
+ 1.01808 2 0 prune 80 ------- 30 2.0 0.0 -1 9
- 1.01808 2 0 prune 80 ------- 30 2.0 0.0 -1 9
r 1.01808 0 3 cbr 1000 ------- 0 0.1 1073741824.0 1 1
+ 1.01808 3 0 prune 80 ------- 30 3.0 0.0 -1 10
- 1.01808 3 0 prune 80 ------- 30 3.0 0.0 -1 10
r 1.020086 4 0 prune 80 ------- 30 4.0 0.0 -1 2
r 1.020086 1 0 prune 80 ------- 30 1.0 0.0 -1 3
r 1.020086 2 0 prune 80 ------- 30 2.0 0.0 -1 4
r 1.020086 3 0 prune 80 ------- 30 3.0 0.0 -1 5
r 1.02608 0 4 cbr 1000 ------- 0 0.1 1073741824.0 2 6
+ 1.02608 4 0 prune 80 ------- 30 4.0 0.0 -1 12
- 1.02608 4 0 prune 80 ------- 30 4.0 0.0 -1 12
r 1.02608 0 1 cbr 1000 ------- 0 0.1 1073741824.0 2 6
+ 1.02608 1 0 prune 80 ------- 30 1.0 0.0 -1 13
- 1.02608 1 0 prune 80 ------- 30 1.0 0.0 -1 13
r 1.02608 0 2 cbr 1000 ------- 0 0.1 1073741824.0 2 6
+ 1.02608 2 0 prune 80 ------- 30 2.0 0.0 -1 14
- 1.02608 2 0 prune 80 ------- 30 2.0 0.0 -1 14
r 1.02608 0 3 cbr 1000 ------- 0 0.1 1073741824.0 2 6
+ 1.02608 3 0 prune 80 ------- 30 3.0 0.0 -1 15
- 1.02608 3 0 prune 80 ------- 30 3.0 0.0 -1 15
r 1.028086 4 0 prune 80 ------- 30 4.0 0.0 -1 7
r 1.028086 1 0 prune 80 ------- 30 1.0 0.0 -1 8
r 1.028086 2 0 prune 80 ------- 30 2.0 0.0 -1 9
r 1.028086 3 0 prune 80 ------- 30 3.0 0.0 -1 10
r 1.036086 4 0 prune 80 ------- 30 4.0 0.0 -1 12
r 1.036086 1 0 prune 80 ------- 30 1.0 0.0 -1 13
r 1.036086 2 0 prune 80 ------- 30 2.0 0.0 -1 14
r 1.036086 3 0 prune 80 ------- 30 3.0 0.0 -1 15
v 1.2 eval {set sim_annotation {1.2 1 join-group 1073741824}}
+ 1.2 1 0 graft 80 ------- 31 1.0 0.0 -1 37
- 1.2 1 0 graft 80 ------- 31 1.0 0.0 -1 37
r 1.210006 1 0 graft 80 ------- 31 1.0 0.0 -1 37
+ 1.216 0 1 cbr 1000 ------- 0 0.1 1073741824.0 27 40
- 1.216 0 1 cbr 1000 ------- 0 0.1 1073741824.0 27 40
+ 1.224 0 1 cbr 1000 ------- 0 0.1 1073741824.0 28 41
- 1.224 0 1 cbr 1000 ------- 0 0.1 1073741824.0 28 41
r 1.22608 0 1 cbr 1000 ------- 0 0.1 1073741824.0 27 40
+ 1.232 0 1 cbr 1000 ------- 0 0.1 1073741824.0 29 42
- 1.232 0 1 cbr 1000 ------- 0 0.1 1073741824.0 29 42
r 1.23408 0 1 cbr 1000 ------- 0 0.1 1073741824.0 28 41
+ 1.24 0 1 cbr 1000 ------- 0 0.1 1073741824.0 30 43
- 1.24 0 1 cbr 1000 ------- 0 0.1 1073741824.0 30 43
r 1.24208 0 1 cbr 1000 ------- 0 0.1 1073741824.0 29 42
+ 1.248 0 1 cbr 1000 ------- 0 0.1 1073741824.0 31 44
- 1.248 0 1 cbr 1000 ------- 0 0.1 1073741824.0 31 44
r 1.25008 0 1 cbr 1000 ------- 0 0.1 1073741824.0 30 43
+ 1.256 0 1 cbr 1000 ------- 0 0.1 1073741824.0 32 45
- 1.256 0 1 cbr 1000 ------- 0 0.1 1073741824.0 32 45
r 1.25808 0 1 cbr 1000 ------- 0 0.1 1073741824.0 31 44
+ 1.264 0 1 cbr 1000 ------- 0 0.1 1073741824.0 33 46
- 1.264 0 1 cbr 1000 ------- 0 0.1 1073741824.0 33 46
r 1.26608 0 1 cbr 1000 ------- 0 0.1 1073741824.0 32 45
+ 1.272 0 1 cbr 1000 ------- 0 0.1 1073741824.0 34 47
- 1.272 0 1 cbr 1000 ------- 0 0.1 1073741824.0 34 47
r 1.27408 0 1 cbr 1000 ------- 0 0.1 1073741824.0 33 46
+ 1.28 0 1 cbr 1000 ------- 0 0.1 1073741824.0 35 48
- 1.28 0 1 cbr 1000 ------- 0 0.1 1073741824.0 35 48
r 1.28208 0 1 cbr 1000 ------- 0 0.1 1073741824.0 34 47
+ 1.288 0 1 cbr 1000 ------- 0 0.1 1073741824.0 36 49
- 1.288 0 1 cbr 1000 ------- 0 0.1 1073741824.0 36 49
r 1.29008 0 1 cbr 1000 ------- 0 0.1 1073741824.0 35 48
+ 1.296 0 1 cbr 1000 ------- 0 0.1 1073741824.0 37 50
- 1.296 0 1 cbr 1000 ------- 0 0.1 1073741824.0 37 50
r 1.29808 0 1 cbr 1000 ------- 0 0.1 1073741824.0 36 49
+ 1.304 0 1 cbr 1000 ------- 0 0.1 1073741824.0 38 51
- 1.304 0 1 cbr 1000 ------- 0 0.1 1073741824.0 38 51
r 1.30608 0 1 cbr 1000 ------- 0 0.1 1073741824.0 37 50
+ 1.312 0 1 cbr 1000 ------- 0 0.1 1073741824.0 39 52
- 1.312 0 1 cbr 1000 ------- 0 0.1 1073741824.0 39 52
r 1.31408 0 1 cbr 1000 ------- 0 0.1 1073741824.0 38 51
+ 1.32 0 1 cbr 1000 ------- 0 0.1 1073741824.0 40 53
- 1.32 0 1 cbr 1000 ------- 0 0.1 1073741824.0 40 53
r 1.32208 0 1 cbr 1000 ------- 0 0.1 1073741824.0 39 52
+ 1.328 0 1 cbr 1000 ------- 0 0.1 1073741824.0 41 54
- 1.328 0 1 cbr 1000 ------- 0 0.1 1073741824.0 41 54
r 1.33008 0 1 cbr 1000 ------- 0 0.1 1073741824.0 40 53
+ 1.336 0 1 cbr 1000 ------- 0 0.1 1073741824.0 42 55
- 1.336 0 1 cbr 1000 ------- 0 0.1 1073741824.0 42 55
r 1.33808 0 1 cbr 1000 ------- 0 0.1 1073741824.0 41 54
+ 1.344 0 1 cbr 1000 ------- 0 0.1 1073741824.0 43 56
- 1.344 0 1 cbr 1000 ------- 0 0.1 1073741824.0 43 56
r 1.34608 0 1 cbr 1000 ------- 0 0.1 1073741824.0 42 55
+ 1.352 0 1 cbr 1000 ------- 0 0.1 1073741824.0 44 57
- 1.352 0 1 cbr 1000 ------- 0 0.1 1073741824.0 44 57
r 1.35408 0 1 cbr 1000 ------- 0 0.1 1073741824.0 43 56
+ 1.36 0 1 cbr 1000 ------- 0 0.1 1073741824.0 45 58
- 1.36 0 1 cbr 1000 ------- 0 0.1 1073741824.0 45 58
r 1.36208 0 1 cbr 1000 ------- 0 0.1 1073741824.0 44 57
+ 1.368 0 1 cbr 1000 ------- 0 0.1 1073741824.0 46 59
- 1.368 0 1 cbr 1000 ------- 0 0.1 1073741824.0 46 59
r 1.37008 0 1 cbr 1000 ------- 0 0.1 1073741824.0 45 58
+ 1.376 0 1 cbr 1000 ------- 0 0.1 1073741824.0 47 60
- 1.376 0 1 cbr 1000 ------- 0 0.1 1073741824.0 47 60
r 1.37808 0 1 cbr 1000 ------- 0 0.1 1073741824.0 46 59
+ 1.384 0 1 cbr 1000 ------- 0 0.1 1073741824.0 48 61
- 1.384 0 1 cbr 1000 ------- 0 0.1 1073741824.0 48 61
r 1.38608 0 1 cbr 1000 ------- 0 0.1 1073741824.0 47 60
+ 1.392 0 1 cbr 1000 ------- 0 0.1 1073741824.0 49 62
- 1.392 0 1 cbr 1000 ------- 0 0.1 1073741824.0 49 62
r 1.39408 0 1 cbr 1000 ------- 0 0.1 1073741824.0 48 61
v 1.4 eval {set sim_annotation {1.3999999999999999 2 join-group 1073741824}}
+ 1.4 2 0 graft 80 ------- 31 2.0 0.0 -1 63
- 1.4 2 0 graft 80 ------- 31 2.0 0.0 -1 63
+ 1.4 0 1 cbr 1000 ------- 0 0.1 1073741824.0 50 64
- 1.4 0 1 cbr 1000 ------- 0 0.1 1073741824.0 50 64
r 1.40208 0 1 cbr 1000 ------- 0 0.1 1073741824.0 49 62
+ 1.408 0 1 cbr 1000 ------- 0 0.1 1073741824.0 51 65
- 1.408 0 1 cbr 1000 ------- 0 0.1 1073741824.0 51 65
r 1.410006 2 0 graft 80 ------- 31 2.0 0.0 -1 63
r 1.41008 0 1 cbr 1000 ------- 0 0.1 1073741824.0 50 64
+ 1.416 0 1 cbr 1000 ------- 0 0.1 1073741824.0 52 66
- 1.416 0 1 cbr 1000 ------- 0 0.1 1073741824.0 52 66
+ 1.416 0 2 cbr 1000 ------- 0 0.1 1073741824.0 52 66
- 1.416 0 2 cbr 1000 ------- 0 0.1 1073741824.0 52 66
r 1.41808 0 1 cbr 1000 ------- 0 0.1 1073741824.0 51 65
+ 1.424 0 1 cbr 1000 ------- 0 0.1 1073741824.0 53 67
- 1.424 0 1 cbr 1000 ------- 0 0.1 1073741824.0 53 67
+ 1.424 0 2 cbr 1000 ------- 0 0.1 1073741824.0 53 67
- 1.424 0 2 cbr 1000 ------- 0 0.1 1073741824.0 53 67
r 1.42608 0 1 cbr 1000 ------- 0 0.1 1073741824.0 52 66
r 1.42608 0 2 cbr 1000 ------- 0 0.1 1073741824.0 52 66
+ 1.432 0 1 cbr 1000 ------- 0 0.1 1073741824.0 54 68
- 1.432 0 1 cbr 1000 ------- 0 0.1 1073741824.0 54 68
+ 1.432 0 2 cbr 1000 ------- 0 0.1 1073741824.0 54 68
- 1.432 0 2 cbr 1000 ------- 0 0.1 1073741824.0 54 68
r 1.43408 0 1 cbr 1000 ------- 0 0.1 1073741824.0 53 67
r 1.43408 0 2 cbr 1000 ------- 0 0.1 1073741824.0 53 67
+ 1.44 0 1 cbr 1000 ------- 0 0.1 1073741824.0 55 69
- 1.44 0 1 cbr 1000 ------- 0 0.1 1073741824.0 55 69
+ 1.44 0 2 cbr 1000 ------- 0 0.1 1073741824.0 55 69
- 1.44 0 2 cbr 1000 ------- 0 0.1 1073741824.0 55 69
r 1.44208 0 1 cbr 1000 ------- 0 0.1 1073741824.0 54 68
r 1.44208 0 2 cbr 1000 ------- 0 0.1 1073741824.0 54 68
+ 1.448 0 1 cbr 1000 ------- 0 0.1 1073741824.0 56 70
- 1.448 0 1 cbr 1000 ------- 0 0.1 1073741824.0 56 70
+ 1.448 0 2 cbr 1000 ------- 0 0.1 1073741824.0 56 70
- 1.448 0 2 cbr 1000 ------- 0 0.1 1073741824.0 56 70
r 1.45008 0 1 cbr 1000 ------- 0 0.1 1073741824.0 55 69
r 1.45008 0 2 cbr 1000 ------- 0 0.1 1073741824.0 55 69
+ 1.456 0 1 cbr 1000 ------- 0 0.1 1073741824.0 57 71
- 1.456 0 1 cbr 1000 ------- 0 0.1 1073741824.0 57 71
+ 1.456 0 2 cbr 1000 ------- 0 0.1 1073741824.0 57 71
- 1.456 0 2 cbr 1000 ------- 0 0.1 1073741824.0 57 71
r 1.45808 0 1 cbr 1000 ------- 0 0.1 1073741824.0 56 70
r 1.45808 0 2 cbr 1000 ------- 0 0.1 1073741824.0 56 70
+ 1.464 0 1 cbr 1000 ------- 0 0.1 1073741824.0 58 72
- 1.464 0 1 cbr 1000 ------- 0 0.1 1073741824.0 58 72
+ 1.464 0 2 cbr 1000 ------- 0 0.1 1073741824.0 58 72
- 1.464 0 2 cbr 1000 ------- 0 0.1 1073741824.0 58 72
r 1.46608 0 1 cbr 1000 ------- 0 0.1 1073741824.0 57 71
r 1.46608 0 2 cbr 1000 ------- 0 0.1 1073741824.0 57 71
+ 1.472 0 1 cbr 1000 ------- 0 0.1 1073741824.0 59 73
- 1.472 0 1 cbr 1000 ------- 0 0.1 1073741824.0 59 73
+ 1.472 0 2 cbr 1000 ------- 0 0.1 1073741824.0 59 73
- 1.472 0 2 cbr 1000 ------- 0 0.1 1073741824.0 59 73
r 1.47408 0 1 cbr 1000 ------- 0 0.1 1073741824.0 58 72
r 1.47408 0 2 cbr 1000 ------- 0 0.1 1073741824.0 58 72
+ 1.48 0 1 cbr 1000 ------- 0 0.1 1073741824.0 60 74
- 1.48 0 1 cbr 1000 ------- 0 0.1 1073741824.0 60 74
+ 1.48 0 2 cbr 1000 ------- 0 0.1 1073741824.0 60 74
- 1.48 0 2 cbr 1000 ------- 0 0.1 1073741824.0 60 74
r 1.48208 0 1 cbr 1000 ------- 0 0.1 1073741824.0 59 73
r 1.48208 0 2 cbr 1000 ------- 0 0.1 1073741824.0 59 73
+ 1.488 0 1 cbr 1000 ------- 0 0.1 1073741824.0 61 75
- 1.488 0 1 cbr 1000 ------- 0 0.1 1073741824.0 61 75
+ 1.488 0 2 cbr 1000 ------- 0 0.1 1073741824.0 61 75
- 1.488 0 2 cbr 1000 ------- 0 0.1 1073741824.0 61 75
r 1.49008 0 1 cbr 1000 ------- 0 0.1 1073741824.0 60 74
r 1.49008 0 2 cbr 1000 ------- 0 0.1 1073741824.0 60 74
+ 1.496 0 1 cbr 1000 ------- 0 0.1 1073741824.0 62 76
- 1.496 0 1 cbr 1000 ------- 0 0.1 1073741824.0 62 76
+ 1.496 0 2 cbr 1000 ------- 0 0.1 1073741824.0 62 76
- 1.496 0 2 cbr 1000 ------- 0 0.1 1073741824.0 62 76
r 1.49808 0 1 cbr 1000 ------- 0 0.1 1073741824.0 61 75
r 1.49808 0 2 cbr 1000 ------- 0 0.1 1073741824.0 61 75
+ 1.504 0 1 cbr 1000 ------- 0 0.1 1073741824.0 63 77
- 1.504 0 1 cbr 1000 ------- 0 0.1 1073741824.0 63 77
+ 1.504 0 2 cbr 1000 ------- 0 0.1 1073741824.0 63 77
- 1.504 0 2 cbr 1000 ------- 0 0.1 1073741824.0 63 77
r 1.50608 0 1 cbr 1000 ------- 0 0.1 1073741824.0 62 76
r 1.50608 0 2 cbr 1000 ------- 0 0.1 1073741824.0 62 76
+ 1.512 0 1 cbr 1000 ------- 0 0.1 1073741824.0 64 78
- 1.512 0 1 cbr 1000 ------- 0 0.1 1073741824.0 64 78
+ 1.512 0 2 cbr 1000 ------- 0 0.1 1073741824.0 64 78
- 1.512 0 2 cbr 1000 ------- 0 0.1 1073741824.0 64 78
r 1.51408 0 1 cbr 1000 ------- 0 0.1 1073741824.0 63 77
r 1.51408 0 2 cbr 1000 ------- 0 0.1 1073741824.0 63 77
+ 1.52 0 1 cbr 1000 ------- 0 0.1 1073741824.0 65 79
- 1.52 0 1 cbr 1000 ------- 0 0.1 1073741824.0 65 79
+ 1.52 0 2 cbr 1000 ------- 0 0.1 1073741824.0 65 79
- 1.52 0 2 cbr 1000 ------- 0 0.1 1073741824.0 65 79
r 1.52208 0 1 cbr 1000 ------- 0 0.1 1073741824.0 64 78
r 1.52208 0 2 cbr 1000 ------- 0 0.1 1073741824.0 64 78
+ 1.528 0 1 cbr 1000 ------- 0 0.1 1073741824.0 66 80
- 1.528 0 1 cbr 1000 ------- 0 0.1 1073741824.0 66 80
+ 1.528 0 2 cbr 1000 ------- 0 0.1 1073741824.0 66 80
- 1.528 0 2 cbr 1000 ------- 0 0.1 1073741824.0 66 80
r 1.53008 0 1 cbr 1000 ------- 0 0.1 1073741824.0 65 79
r 1.53008 0 2 cbr 1000 ------- 0 0.1 1073741824.0 65 79
+ 1.536 0 1 cbr 1000 ------- 0 0.1 1073741824.0 67 81
- 1.536 0 1 cbr 1000 ------- 0 0.1 1073741824.0 67 81
+ 1.536 0 2 cbr 1000 ------- 0 0.1 1073741824.0 67 81
- 1.536 0 2 cbr 1000 ------- 0 0.1 1073741824.0 67 81
r 1.53808 0 1 cbr 1000 ------- 0 0.1 1073741824.0 66 80
r 1.53808 0 2 cbr 1000 ------- 0 0.1 1073741824.0 66 80
+ 1.544 0 1 cbr 1000 ------- 0 0.1 1073741824.0 68 82
- 1.544 0 1 cbr 1000 ------- 0 0.1 1073741824.0 68 82
+ 1.544 0 2 cbr 1000 ------- 0 0.1 1073741824.0 68 82
- 1.544 0 2 cbr 1000 ------- 0 0.1 1073741824.0 68 82
+ 1.544 0 4 cbr 1000 ------- 0 0.1 1073741824.0 68 82
- 1.544 0 4 cbr 1000 ------- 0 0.1 1073741824.0 68 82
+ 1.544 0 3 cbr 1000 ------- 0 0.1 1073741824.0 68 82
- 1.544 0 3 cbr 1000 ------- 0 0.1 1073741824.0 68 82
r 1.54608 0 1 cbr 1000 ------- 0 0.1 1073741824.0 67 81
r 1.54608 0 2 cbr 1000 ------- 0 0.1 1073741824.0 67 81
+ 1.552 0 1 cbr 1000 ------- 0 0.1 1073741824.0 69 83
- 1.552 0 1 cbr 1000 ------- 0 0.1 1073741824.0 69 83
+ 1.552 0 2 cbr 1000 ------- 0 0.1 1073741824.0 69 83
- 1.552 0 2 cbr 1000 ------- 0 0.1 1073741824.0 69 83
+ 1.552 0 4 cbr 1000 ------- 0 0.1 1073741824.0 69 83
- 1.552 0 4 cbr 1000 ------- 0 0.1 1073741824.0 69 83
+ 1.552 0 3 cbr 1000 ------- 0 0.1 1073741824.0 69 83
- 1.552 0 3 cbr 1000 ------- 0 0.1 1073741824.0 69 83
r 1.55408 0 1 cbr 1000 ------- 0 0.1 1073741824.0 68 82
r 1.55408 0 2 cbr 1000 ------- 0 0.1 1073741824.0 68 82
r 1.55408 0 4 cbr 1000 ------- 0 0.1 1073741824.0 68 82
+ 1.55408 4 0 prune 80 ------- 30 4.0 0.0 -1 84
- 1.55408 4 0 prune 80 ------- 30 4.0 0.0 -1 84
r 1.55408 0 3 cbr 1000 ------- 0 0.1 1073741824.0 68 82
+ 1.55408 3 0 prune 80 ------- 30 3.0 0.0 -1 85
- 1.55408 3 0 prune 80 ------- 30 3.0 0.0 -1 85
+ 1.56 0 1 cbr 1000 ------- 0 0.1 1073741824.0 70 86
- 1.56 0 1 cbr 1000 ------- 0 0.1 1073741824.0 70 86
+ 1.56 0 2 cbr 1000 ------- 0 0.1 1073741824.0 70 86
- 1.56 0 2 cbr 1000 ------- 0 0.1 1073741824.0 70 86
+ 1.56 0 4 cbr 1000 ------- 0 0.1 1073741824.0 70 86
- 1.56 0 4 cbr 1000 ------- 0 0.1 1073741824.0 70 86
+ 1.56 0 3 cbr 1000 ------- 0 0.1 1073741824.0 70 86
- 1.56 0 3 cbr 1000 ------- 0 0.1 1073741824.0 70 86
r 1.56208 0 1 cbr 1000 ------- 0 0.1 1073741824.0 69 83
r 1.56208 0 2 cbr 1000 ------- 0 0.1 1073741824.0 69 83
r 1.56208 0 4 cbr 1000 ------- 0 0.1 1073741824.0 69 83
+ 1.56208 4 0 prune 80 ------- 30 4.0 0.0 -1 87
- 1.56208 4 0 prune 80 ------- 30 4.0 0.0 -1 87
r 1.56208 0 3 cbr 1000 ------- 0 0.1 1073741824.0 69 83
+ 1.56208 3 0 prune 80 ------- 30 3.0 0.0 -1 88
- 1.56208 3 0 prune 80 ------- 30 3.0 0.0 -1 88
r 1.564086 4 0 prune 80 ------- 30 4.0 0.0 -1 84
r 1.564086 3 0 prune 80 ------- 30 3.0 0.0 -1 85
+ 1.568 0 1 cbr 1000 ------- 0 0.1 1073741824.0 71 89
- 1.568 0 1 cbr 1000 ------- 0 0.1 1073741824.0 71 89
+ 1.568 0 2 cbr 1000 ------- 0 0.1 1073741824.0 71 89
- 1.568 0 2 cbr 1000 ------- 0 0.1 1073741824.0 71 89
r 1.57008 0 1 cbr 1000 ------- 0 0.1 1073741824.0 70 86
r 1.57008 0 2 cbr 1000 ------- 0 0.1 1073741824.0 70 86
r 1.57008 0 4 cbr 1000 ------- 0 0.1 1073741824.0 70 86
+ 1.57008 4 0 prune 80 ------- 30 4.0 0.0 -1 90
- 1.57008 4 0 prune 80 ------- 30 4.0 0.0 -1 90
r 1.57008 0 3 cbr 1000 ------- 0 0.1 1073741824.0 70 86
+ 1.57008 3 0 prune 80 ------- 30 3.0 0.0 -1 91
- 1.57008 3 0 prune 80 ------- 30 3.0 0.0 -1 91
r 1.572086 4 0 prune 80 ------- 30 4.0 0.0 -1 87
r 1.572086 3 0 prune 80 ------- 30 3.0 0.0 -1 88
+ 1.576 0 1 cbr 1000 ------- 0 0.1 1073741824.0 72 92
- 1.576 0 1 cbr 1000 ------- 0 0.1 1073741824.0 72 92
+ 1.576 0 2 cbr 1000 ------- 0 0.1 1073741824.0 72 92
- 1.576 0 2 cbr 1000 ------- 0 0.1 1073741824.0 72 92
r 1.57808 0 1 cbr 1000 ------- 0 0.1 1073741824.0 71 89
r 1.57808 0 2 cbr 1000 ------- 0 0.1 1073741824.0 71 89
r 1.580086 4 0 prune 80 ------- 30 4.0 0.0 -1 90
r 1.580086 3 0 prune 80 ------- 30 3.0 0.0 -1 91
+ 1.584 0 1 cbr 1000 ------- 0 0.1 1073741824.0 73 93
- 1.584 0 1 cbr 1000 ------- 0 0.1 1073741824.0 73 93
+ 1.584 0 2 cbr 1000 ------- 0 0.1 1073741824.0 73 93
- 1.584 0 2 cbr 1000 ------- 0 0.1 1073741824.0 73 93
r 1.58608 0 1 cbr 1000 ------- 0 0.1 1073741824.0 72 92
r 1.58608 0 2 cbr 1000 ------- 0 0.1 1073741824.0 72 92
+ 1.592 0 1 cbr 1000 ------- 0 0.1 1073741824.0 74 94
- 1.592 0 1 cbr 1000 ------- 0 0.1 1073741824.0 74 94
+ 1.592 0 2 cbr 1000 ------- 0 0.1 1073741824.0 74 94
- 1.592 0 2 cbr 1000 ------- 0 0.1 1073741824.0 74 94
r 1.59408 0 1 cbr 1000 ------- 0 0.1 1073741824.0 73 93
r 1.59408 0 2 cbr 1000 ------- 0 0.1 1073741824.0 73 93
v 1.6 eval {set sim_annotation {1.6000000000000001 3 join-group 1073741824}}
+ 1.6 3 0 graft 80 ------- 31 3.0 0.0 -1 95
- 1.6 3 0 graft 80 ------- 31 3.0 0.0 -1 95
+ 1.6 0 1 cbr 1000 ------- 0 0.1 1073741824.0 75 96
- 1.6 0 1 cbr 1000 ------- 0 0.1 1073741824.0 75 96
+ 1.6 0 2 cbr 1000 ------- 0 0.1 1073741824.0 75 96
- 1.6 0 2 cbr 1000 ------- 0 0.1 1073741824.0 75 96
r 1.60208 0 1 cbr 1000 ------- 0 0.1 1073741824.0 74 94
r 1.60208 0 2 cbr 1000 ------- 0 0.1 1073741824.0 74 94
+ 1.608 0 1 cbr 1000 ------- 0 0.1 1073741824.0 76 97
- 1.608 0 1 cbr 1000 ------- 0 0.1 1073741824.0 76 97
+ 1.608 0 2 cbr 1000 ------- 0 0.1 1073741824.0 76 97
- 1.608 0 2 cbr 1000 ------- 0 0.1 1073741824.0 76 97
r 1.610006 3 0 graft 80 ------- 31 3.0 0.0 -1 95
r 1.61008 0 1 cbr 1000 ------- 0 0.1 1073741824.0 75 96
r 1.61008 0 2 cbr 1000 ------- 0 0.1 1073741824.0 75 96
+ 1.616 0 1 cbr 1000 ------- 0 0.1 1073741824.0 77 98
- 1.616 0 1 cbr 1000 ------- 0 0.1 1073741824.0 77 98
+ 1.616 0 2 cbr 1000 ------- 0 0.1 1073741824.0 77 98
- 1.616 0 2 cbr 1000 ------- 0 0.1 1073741824.0 77 98
+ 1.616 0 3 cbr 1000 ------- 0 0.1 1073741824.0 77 98
- 1.616 0 3 cbr 1000 ------- 0 0.1 1073741824.0 77 98
r 1.61808 0 1 cbr 1000 ------- 0 0.1 1073741824.0 76 97
r 1.61808 0 2 cbr 1000 ------- 0 0.1 1073741824.0 76 97
+ 1.624 0 1 cbr 1000 ------- 0 0.1 1073741824.0 78 99
- 1.624 0 1 cbr 1000 ------- 0 0.1 1073741824.0 78 99
+ 1.624 0 2 cbr 1000 ------- 0 0.1 1073741824.0 78 99
- 1.624 0 2 cbr 1000 ------- 0 0.1 1073741824.0 78 99
+ 1.624 0 3 cbr 1000 ------- 0 0.1 1073741824.0 78 99
- 1.624 0 3 cbr 1000 ------- 0 0.1 1073741824.0 78 99
r 1.62608 0 1 cbr 1000 ------- 0 0.1 1073741824.0 77 98
r 1.62608 0 2 cbr 1000 ------- 0 0.1 1073741824.0 77 98
r 1.62608 0 3 cbr 1000 ------- 0 0.1 1073741824.0 77 98
+ 1.632 0 1 cbr 1000 ------- 0 0.1 1073741824.0 79 100
- 1.632 0 1 cbr 1000 ------- 0 0.1 1073741824.0 79 100
+ 1.632 0 2 cbr 1000 ------- 0 0.1 1073741824.0 79 100
- 1.632 0 2 cbr 1000 ------- 0 0.1 1073741824.0 79 100
+ 1.632 0 3 cbr 1000 ------- 0 0.1 1073741824.0 79 100
- 1.632 0 3 cbr 1000 ------- 0 0.1 1073741824.0 79 100
r 1.63408 0 1 cbr 1000 ------- 0 0.1 1073741824.0 78 99
r 1.63408 0 2 cbr 1000 ------- 0 0.1 1073741824.0 78 99
r 1.63408 0 3 cbr 1000 ------- 0 0.1 1073741824.0 78 99
+ 1.64 0 1 cbr 1000 ------- 0 0.1 1073741824.0 80 101
- 1.64 0 1 cbr 1000 ------- 0 0.1 1073741824.0 80 101
+ 1.64 0 2 cbr 1000 ------- 0 0.1 1073741824.0 80 101
- 1.64 0 2 cbr 1000 ------- 0 0.1 1073741824.0 80 101
+ 1.64 0 3 cbr 1000 ------- 0 0.1 1073741824.0 80 101
- 1.64 0 3 cbr 1000 ------- 0 0.1 1073741824.0 80 101
r 1.64208 0 1 cbr 1000 ------- 0 0.1 1073741824.0 79 100
r 1.64208 0 2 cbr 1000 ------- 0 0.1 1073741824.0 79 100
r 1.64208 0 3 cbr 1000 ------- 0 0.1 1073741824.0 79 100
+ 1.648 0 1 cbr 1000 ------- 0 0.1 1073741824.0 81 102
- 1.648 0 1 cbr 1000 ------- 0 0.1 1073741824.0 81 102
+ 1.648 0 2 cbr 1000 ------- 0 0.1 1073741824.0 81 102
- 1.648 0 2 cbr 1000 ------- 0 0.1 1073741824.0 81 102
+ 1.648 0 3 cbr 1000 ------- 0 0.1 1073741824.0 81 102
- 1.648 0 3 cbr 1000 ------- 0 0.1 1073741824.0 81 102
r 1.65008 0 1 cbr 1000 ------- 0 0.1 1073741824.0 80 101
r 1.65008 0 2 cbr 1000 ------- 0 0.1 1073741824.0 80 101
r 1.65008 0 3 cbr 1000 ------- 0 0.1 1073741824.0 80 101
+ 1.656 0 1 cbr 1000 ------- 0 0.1 1073741824.0 82 103
- 1.656 0 1 cbr 1000 ------- 0 0.1 1073741824.0 82 103
+ 1.656 0 2 cbr 1000 ------- 0 0.1 1073741824.0 82 103
- 1.656 0 2 cbr 1000 ------- 0 0.1 1073741824.0 82 103
+ 1.656 0 3 cbr 1000 ------- 0 0.1 1073741824.0 82 103
- 1.656 0 3 cbr 1000 ------- 0 0.1 1073741824.0 82 103
r 1.65808 0 1 cbr 1000 ------- 0 0.1 1073741824.0 81 102
r 1.65808 0 2 cbr 1000 ------- 0 0.1 1073741824.0 81 102
r 1.65808 0 3 cbr 1000 ------- 0 0.1 1073741824.0 81 102
+ 1.664 0 1 cbr 1000 ------- 0 0.1 1073741824.0 83 104
- 1.664 0 1 cbr 1000 ------- 0 0.1 1073741824.0 83 104
+ 1.664 0 2 cbr 1000 ------- 0 0.1 1073741824.0 83 104
- 1.664 0 2 cbr 1000 ------- 0 0.1 1073741824.0 83 104
+ 1.664 0 3 cbr 1000 ------- 0 0.1 1073741824.0 83 104
- 1.664 0 3 cbr 1000 ------- 0 0.1 1073741824.0 83 104
r 1.66608 0 1 cbr 1000 ------- 0 0.1 1073741824.0 82 103
r 1.66608 0 2 cbr 1000 ------- 0 0.1 1073741824.0 82 103
r 1.66608 0 3 cbr 1000 ------- 0 0.1 1073741824.0 82 103
+ 1.672 0 1 cbr 1000 ------- 0 0.1 1073741824.0 84 105
- 1.672 0 1 cbr 1000 ------- 0 0.1 1073741824.0 84 105
+ 1.672 0 2 cbr 1000 ------- 0 0.1 1073741824.0 84 105
- 1.672 0 2 cbr 1000 ------- 0 0.1 1073741824.0 84 105
+ 1.672 0 3 cbr 1000 ------- 0 0.1 1073741824.0 84 105
- 1.672 0 3 cbr 1000 ------- 0 0.1 1073741824.0 84 105
r 1.67408 0 1 cbr 1000 ------- 0 0.1 1073741824.0 83 104
r 1.67408 0 2 cbr 1000 ------- 0 0.1 1073741824.0 83 104
r 1.67408 0 3 cbr 1000 ------- 0 0.1 1073741824.0 83 104
+ 1.68 0 1 cbr 1000 ------- 0 0.1 1073741824.0 85 106
- 1.68 0 1 cbr 1000 ------- 0 0.1 1073741824.0 85 106
+ 1.68 0 2 cbr 1000 ------- 0 0.1 1073741824.0 85 106
- 1.68 0 2 cbr 1000 ------- 0 0.1 1073741824.0 85 106
+ 1.68 0 3 cbr 1000 ------- 0 0.1 1073741824.0 85 106
- 1.68 0 3 cbr 1000 ------- 0 0.1 1073741824.0 85 106
r 1.68208 0 1 cbr 1000 ------- 0 0.1 1073741824.0 84 105
r 1.68208 0 2 cbr 1000 ------- 0 0.1 1073741824.0 84 105
r 1.68208 0 3 cbr 1000 ------- 0 0.1 1073741824.0 84 105
+ 1.688 0 1 cbr 1000 ------- 0 0.1 1073741824.0 86 107
- 1.688 0 1 cbr 1000 ------- 0 0.1 1073741824.0 86 107
+ 1.688 0 2 cbr 1000 ------- 0 0.1 1073741824.0 86 107
- 1.688 0 2 cbr 1000 ------- 0 0.1 1073741824.0 86 107
+ 1.688 0 3 cbr 1000 ------- 0 0.1 1073741824.0 86 107
- 1.688 0 3 cbr 1000 ------- 0 0.1 1073741824.0 86 107
r 1.69008 0 1 cbr 1000 ------- 0 0.1 1073741824.0 85 106
r 1.69008 0 2 cbr 1000 ------- 0 0.1 1073741824.0 85 106
r 1.69008 0 3 cbr 1000 ------- 0 0.1 1073741824.0 85 106
+ 1.696 0 1 cbr 1000 ------- 0 0.1 1073741824.0 87 108
- 1.696 0 1 cbr 1000 ------- 0 0.1 1073741824.0 87 108
+ 1.696 0 2 cbr 1000 ------- 0 0.1 1073741824.0 87 108
- 1.696 0 2 cbr 1000 ------- 0 0.1 1073741824.0 87 108
+ 1.696 0 3 cbr 1000 ------- 0 0.1 1073741824.0 87 108
- 1.696 0 3 cbr 1000 ------- 0 0.1 1073741824.0 87 108
r 1.69808 0 1 cbr 1000 ------- 0 0.1 1073741824.0 86 107
r 1.69808 0 2 cbr 1000 ------- 0 0.1 1073741824.0 86 107
r 1.69808 0 3 cbr 1000 ------- 0 0.1 1073741824.0 86 107
+ 1.704 0 1 cbr 1000 ------- 0 0.1 1073741824.0 88 109
- 1.704 0 1 cbr 1000 ------- 0 0.1 1073741824.0 88 109
+ 1.704 0 2 cbr 1000 ------- 0 0.1 1073741824.0 88 109
- 1.704 0 2 cbr 1000 ------- 0 0.1 1073741824.0 88 109
+ 1.704 0 3 cbr 1000 ------- 0 0.1 1073741824.0 88 109
- 1.704 0 3 cbr 1000 ------- 0 0.1 1073741824.0 88 109
r 1.70608 0 1 cbr 1000 ------- 0 0.1 1073741824.0 87 108
r 1.70608 0 2 cbr 1000 ------- 0 0.1 1073741824.0 87 108
r 1.70608 0 3 cbr 1000 ------- 0 0.1 1073741824.0 87 108
+ 1.712 0 1 cbr 1000 ------- 0 0.1 1073741824.0 89 110
- 1.712 0 1 cbr 1000 ------- 0 0.1 1073741824.0 89 110
+ 1.712 0 2 cbr 1000 ------- 0 0.1 1073741824.0 89 110
- 1.712 0 2 cbr 1000 ------- 0 0.1 1073741824.0 89 110
+ 1.712 0 3 cbr 1000 ------- 0 0.1 1073741824.0 89 110
- 1.712 0 3 cbr 1000 ------- 0 0.1 1073741824.0 89 110
r 1.71408 0 1 cbr 1000 ------- 0 0.1 1073741824.0 88 109
r 1.71408 0 2 cbr 1000 ------- 0 0.1 1073741824.0 88 109
r 1.71408 0 3 cbr 1000 ------- 0 0.1 1073741824.0 88 109
+ 1.72 0 1 cbr 1000 ------- 0 0.1 1073741824.0 90 111
- 1.72 0 1 cbr 1000 ------- 0 0.1 1073741824.0 90 111
+ 1.72 0 2 cbr 1000 ------- 0 0.1 1073741824.0 90 111
- 1.72 0 2 cbr 1000 ------- 0 0.1 1073741824.0 90 111
+ 1.72 0 3 cbr 1000 ------- 0 0.1 1073741824.0 90 111
- 1.72 0 3 cbr 1000 ------- 0 0.1 1073741824.0 90 111
r 1.72208 0 1 cbr 1000 ------- 0 0.1 1073741824.0 89 110
r 1.72208 0 2 cbr 1000 ------- 0 0.1 1073741824.0 89 110
r 1.72208 0 3 cbr 1000 ------- 0 0.1 1073741824.0 89 110
+ 1.728 0 1 cbr 1000 ------- 0 0.1 1073741824.0 91 112
- 1.728 0 1 cbr 1000 ------- 0 0.1 1073741824.0 91 112
+ 1.728 0 2 cbr 1000 ------- 0 0.1 1073741824.0 91 112
- 1.728 0 2 cbr 1000 ------- 0 0.1 1073741824.0 91 112
+ 1.728 0 3 cbr 1000 ------- 0 0.1 1073741824.0 91 112
- 1.728 0 3 cbr 1000 ------- 0 0.1 1073741824.0 91 112
r 1.73008 0 1 cbr 1000 ------- 0 0.1 1073741824.0 90 111
r 1.73008 0 2 cbr 1000 ------- 0 0.1 1073741824.0 90 111
r 1.73008 0 3 cbr 1000 ------- 0 0.1 1073741824.0 90 111
+ 1.736 0 1 cbr 1000 ------- 0 0.1 1073741824.0 92 113
- 1.736 0 1 cbr 1000 ------- 0 0.1 1073741824.0 92 113
+ 1.736 0 2 cbr 1000 ------- 0 0.1 1073741824.0 92 113
- 1.736 0 2 cbr 1000 ------- 0 0.1 1073741824.0 92 113
+ 1.736 0 3 cbr 1000 ------- 0 0.1 1073741824.0 92 113
- 1.736 0 3 cbr 1000 ------- 0 0.1 1073741824.0 92 113
r 1.73808 0 1 cbr 1000 ------- 0 0.1 1073741824.0 91 112
r 1.73808 0 2 cbr 1000 ------- 0 0.1 1073741824.0 91 112
r 1.73808 0 3 cbr 1000 ------- 0 0.1 1073741824.0 91 112
+ 1.744 0 1 cbr 1000 ------- 0 0.1 1073741824.0 93 114
- 1.744 0 1 cbr 1000 ------- 0 0.1 1073741824.0 93 114
+ 1.744 0 2 cbr 1000 ------- 0 0.1 1073741824.0 93 114
- 1.744 0 2 cbr 1000 ------- 0 0.1 1073741824.0 93 114
+ 1.744 0 3 cbr 1000 ------- 0 0.1 1073741824.0 93 114
- 1.744 0 3 cbr 1000 ------- 0 0.1 1073741824.0 93 114
r 1.74608 0 1 cbr 1000 ------- 0 0.1 1073741824.0 92 113
r 1.74608 0 2 cbr 1000 ------- 0 0.1 1073741824.0 92 113
r 1.74608 0 3 cbr 1000 ------- 0 0.1 1073741824.0 92 113
+ 1.752 0 1 cbr 1000 ------- 0 0.1 1073741824.0 94 115
- 1.752 0 1 cbr 1000 ------- 0 0.1 1073741824.0 94 115
+ 1.752 0 2 cbr 1000 ------- 0 0.1 1073741824.0 94 115
- 1.752 0 2 cbr 1000 ------- 0 0.1 1073741824.0 94 115
+ 1.752 0 3 cbr 1000 ------- 0 0.1 1073741824.0 94 115
- 1.752 0 3 cbr 1000 ------- 0 0.1 1073741824.0 94 115
r 1.75408 0 1 cbr 1000 ------- 0 0.1 1073741824.0 93 114
r 1.75408 0 2 cbr 1000 ------- 0 0.1 1073741824.0 93 114
r 1.75408 0 3 cbr 1000 ------- 0 0.1 1073741824.0 93 114
+ 1.76 0 1 cbr 1000 ------- 0 0.1 1073741824.0 95 116
- 1.76 0 1 cbr 1000 ------- 0 0.1 1073741824.0 95 116
+ 1.76 0 2 cbr 1000 ------- 0 0.1 1073741824.0 95 116
- 1.76 0 2 cbr 1000 ------- 0 0.1 1073741824.0 95 116
+ 1.76 0 3 cbr 1000 ------- 0 0.1 1073741824.0 95 116
- 1.76 0 3 cbr 1000 ------- 0 0.1 1073741824.0 95 116
r 1.76208 0 1 cbr 1000 ------- 0 0.1 1073741824.0 94 115
r 1.76208 0 2 cbr 1000 ------- 0 0.1 1073741824.0 94 115
r 1.76208 0 3 cbr 1000 ------- 0 0.1 1073741824.0 94 115
+ 1.768 0 1 cbr 1000 ------- 0 0.1 1073741824.0 96 117
- 1.768 0 1 cbr 1000 ------- 0 0.1 1073741824.0 96 117
+ 1.768 0 2 cbr 1000 ------- 0 0.1 1073741824.0 96 117
- 1.768 0 2 cbr 1000 ------- 0 0.1 1073741824.0 96 117
+ 1.768 0 3 cbr 1000 ------- 0 0.1 1073741824.0 96 117
- 1.768 0 3 cbr 1000 ------- 0 0.1 1073741824.0 96 117
r 1.77008 0 1 cbr 1000 ------- 0 0.1 1073741824.0 95 116
r 1.77008 0 2 cbr 1000 ------- 0 0.1 1073741824.0 95 116
r 1.77008 0 3 cbr 1000 ------- 0 0.1 1073741824.0 95 116
+ 1.776 0 1 cbr 1000 ------- 0 0.1 1073741824.0 97 118
- 1.776 0 1 cbr 1000 ------- 0 0.1 1073741824.0 97 118
+ 1.776 0 2 cbr 1000 ------- 0 0.1 1073741824.0 97 118
- 1.776 0 2 cbr 1000 ------- 0 0.1 1073741824.0 97 118
+ 1.776 0 3 cbr 1000 ------- 0 0.1 1073741824.0 97 118
- 1.776 0 3 cbr 1000 ------- 0 0.1 1073741824.0 97 118
r 1.77808 0 1 cbr 1000 ------- 0 0.1 1073741824.0 96 117
r 1.77808 0 2 cbr 1000 ------- 0 0.1 1073741824.0 96 117
r 1.77808 0 3 cbr 1000 ------- 0 0.1 1073741824.0 96 117
+ 1.784 0 1 cbr 1000 ------- 0 0.1 1073741824.0 98 119
- 1.784 0 1 cbr 1000 ------- 0 0.1 1073741824.0 98 119
+ 1.784 0 2 cbr 1000 ------- 0 0.1 1073741824.0 98 119
- 1.784 0 2 cbr 1000 ------- 0 0.1 1073741824.0 98 119
+ 1.784 0 3 cbr 1000 ------- 0 0.1 1073741824.0 98 119
- 1.784 0 3 cbr 1000 ------- 0 0.1 1073741824.0 98 119
r 1.78608 0 1 cbr 1000 ------- 0 0.1 1073741824.0 97 118
r 1.78608 0 2 cbr 1000 ------- 0 0.1 1073741824.0 97 118
r 1.78608 0 3 cbr 1000 ------- 0 0.1 1073741824.0 97 118
+ 1.792 0 1 cbr 1000 ------- 0 0.1 1073741824.0 99 120
- 1.792 0 1 cbr 1000 ------- 0 0.1 1073741824.0 99 120
+ 1.792 0 2 cbr 1000 ------- 0 0.1 1073741824.0 99 120
- 1.792 0 2 cbr 1000 ------- 0 0.1 1073741824.0 99 120
+ 1.792 0 3 cbr 1000 ------- 0 0.1 1073741824.0 99 120
- 1.792 0 3 cbr 1000 ------- 0 0.1 1073741824.0 99 120
r 1.79408 0 1 cbr 1000 ------- 0 0.1 1073741824.0 98 119
r 1.79408 0 2 cbr 1000 ------- 0 0.1 1073741824.0 98 119
r 1.79408 0 3 cbr 1000 ------- 0 0.1 1073741824.0 98 119
v 1.8 eval {set sim_annotation {1.8 4 join-group 1073741824}}
+ 1.8 4 0 graft 80 ------- 31 4.0 0.0 -1 121
- 1.8 4 0 graft 80 ------- 31 4.0 0.0 -1 121
+ 1.8 0 1 cbr 1000 ------- 0 0.1 1073741824.0 100 122
- 1.8 0 1 cbr 1000 ------- 0 0.1 1073741824.0 100 122
+ 1.8 0 2 cbr 1000 ------- 0 0.1 1073741824.0 100 122