V -t * -v 1.0a5 -a 0
A -t * -n 1 -p 0 -o 0x7fffffff -c 30 -a 1
A -t * -h 1 -m 1073741823 -s 0
n -t * -a 4 -s 4 -S UP -v circle -c black -i black
n -t * -a 0 -s 0 -S UP -v circle -c black -i black
n -t * -a 1 -s 1 -S UP -v circle -c black -i black
n -t * -a 2 -s 2 -S UP -v circle -c black -i black
n -t * -a 3 -s 3 -S UP -v circle -c black -i black
l -t * -s 0 -d 1 -S UP -r 100000000 -D 0.01 -c black -o right
l -t * -s 0 -d 2 -S UP -r 100000000 -D 0.01 -c black -o left-down
l -t * -s 0 -d 3 -S UP -r 100000000 -D 0.01 -c black -o left
l -t * -s 0 -d 4 -S UP -r 100000000 -D 0.01 -c black -o left-up
+ -t 1 -s 0 -d 4 -p cbr -e 1000 -c 0 -i 0 -a 0 -x {0.1 1073741824.0 0 ------- null}
- -t 1 -s 0 -d 4 -p cbr -e 1000 -c 0 -i 0 -a 0 -x {0.1 1073741824.0 0 ------- null}
h -t 1 -s 0 -d 4 -p cbr -e 1000 -c 0 -i 0 -a 0 -x {0.1 1073741824.0 -1 ------- null}
+ -t 1 -s 0 -d 1 -p cbr -e 1000 -c 0 -i 0 -a 0 -x {0.1 1073741824.0 0 ------- null}
- -t 1 -s 0 -d 1 -p cbr -e 1000 -c 0 -i 0 -a 0 -x {0.1 1073741824.0 0 ------- null}
h -t 1 -s 0 -d 1 -p cbr -e 1000 -c 0 -i 0 -a 0 -x {0.1 1073741824.0 -1 ------- null}
+ -t 1 -s 0 -d 2 -p cbr -e 1000 -c 0 -i 0 -a 0 -x {0.1 1073741824.0 0 ------- null}
- -t 1 -s 0 -d 2 -p cbr -e 1000 -c 0 -i 0 -a 0 -x {0.1 1073741824.0 0 ------- null}
h -t 1 -s 0 -d 2 -p cbr -e 1000 -c 0 -i 0 -a 0 -x {0.1 1073741824.0 -1 ------- null}
+ -t 1 -s 0 -d 3 -p cbr -e 1000 -c 0 -i 0 -a 0 -x {0.1 1073741824.0 0 ------- null}
- -t 1 -s 0 -d 3 -p cbr -e 1000 -c 0 -i 0 -a 0 -x {0.1 1073741824.0 0 ------- null}
h -t 1 -s 0 -d 3 -p cbr -e 1000 -c 0 -i 0 -a 0 -x {0.1 1073741824.0 -1 ------- null}
+ -t 1.008 -s 0 -d 4 -p cbr -e 1000 -c 0 -i 1 -a 0 -x {0.1 1073741824.0 1 ------- null}
- -t 1.008 -s 0 -d 4 -p cbr -e 1000 -c 0 -i 1 -a 0 -x {0.1 1073741824.0 1 ------- null}
h -t 1.008 -s 0 -d 4 -p cbr -e 1000 -c 0 -i 1 -a 0 -x {0.1 1073741824.0 -1 ------- null}
+ -t 1.008 -s 0 -d 1 -p cbr -e 1000 -c 0 -i 1 -a 0 -x {0.1 1073741824.0 1 ------- null}
- -t 1.008 -s 0 -d 1 -p cbr -e 1000 -c 0 -i 1 -a 0 -x {0.1 1073741824.0 1 ------- null}
h -t 1.008 -s 0 -d 1 -p cbr -e 1000 -c 0 -i 1 -a 0 -x {0.1 1073741824.0 -1 ------- null}
+ -t 1.008 -s 0 -d 2 -p cbr -e 1000 -c 0 -i 1 -a 0 -x {0.1 1073741824.0 1 ------- null}
- -t 1.008 -s 0 -d 2 -p cbr -e 1000 -c 0 -i 1 -a 0 -x {0.1 1073741824.0 1 ------- null}
h -t 1.008 -s 0 -d 2 -p cbr -e 1000 -c 0 -i 1 -a 0 -x {0.1 1073741824.0 -1 ------- null}
+ -t 1.008 -s 0 -d 3 -p cbr -e 1000 -c 0 -i 1 -a 0 -x {0.1 1073741824.0 1 ------- null}
- -t 1.008 -s 0 -d 3 -p cbr -e 1000 -c 0 -i 1 -a 0 -x {0.1 1073741824.0 1 ------- null}
h -t 1.008 -s 0 -d 3 -p cbr -e 1000 -c 0 -i 1 -a 0 -x {0.1 1073741824.0 -1 ------- null}
r -t 1.01008 -s 0 -d 4 -p cbr -e 1000 -c 0 -i 0 -a 0 -x {0.1 1073741824.0 0 ------- null}
+ -t 1.01008 -s 4 -d 0 -p prune -e 80 -c 30 -i 2 -a 30 -x {4.0 0.0 -1 ------- null}
- -t 1.01008 -s 4 -d 0 -p prune -e 80 -c 30 -i 2 -a 30 -x {4.0 0.0 -1 ------- null}
h -t 1.01008 -s 4 -d 0 -p prune -e 80 -c 30 -i 2 -a 30 -x {4.0 0.0 -1 ------- null}
r -t 1.01008 -s 0 -d 1 -p cbr -e 1000 -c 0 -i 0 -a 0 -x {0.1 1073741824.0 0 ------- null}
+ -t 1.01008 -s 1 -d 0 -p prune -e 80 -c 30 -i 3 -a 30 -x {1.0 0.0 -1 ------- null}
- -t 1.01008 -s 1 -d 0 -p prune -e 80 -c 30 -i 3 -a 30 -x {1.0 0.0 -1 ------- null}
h -t 1.01008 -s 1 -d 0 -p prune -e 80 -c 30 -i 3 -a 30 -x {1.0 0.0 -1 ------- null}
r -t 1.01008 -s 0 -d 2 -p cbr -e 1000 -c 0 -i 0 -a 0 -x {0.1 1073741824.0 0 ------- null}
+ -t 1.01008 -s 2 -d 0 -p prune -e 80 -c 30 -i 4 -a 30 -x {2.0 0.0 -1 ------- null}
- -t 1.01008 -s 2 -d 0 -p prune -e 80 -c 30 -i 4 -a 30 -x {2.0 0.0 -1 ------- null}
h -t 1.01008 -s 2 -d 0 -p prune -e 80 -c 30 -i 4 -a 30 -x {2.0 0.0 -1 ------- null}
r -t 1.01008 -s 0 -d 3 -p cbr -e 1000 -c 0 -i 0 -a 0 -x {0.1 1073741824.0 0 ------- null}
+ -t 1.01008 -s 3 -d 0 -p prune -e 80 -c 30 -i 5 -a 30 -x {3.0 0.0 -1 ------- null}
- -t 1.01008 -s 3 -d 0 -p prune -e 80 -c 30 -i 5 -a 30 -x {3.0 0.0 -1 ------- null}
h -t 1.01008 -s 3 -d 0 -p prune -e 80 -c 30 -i 5 -a 30 -x {3.0 0.0 -1 ------- null}
+ -t 1.016 -s 0 -d 4 -p cbr -e 1000 -c 0 -i 6 -a 0 -x {0.1 1073741824.0 2 ------- null}
- -t 1.016 -s 0 -d 4 -p cbr -e 1000 -c 0 -i 6 -a 0 -x {0.1 1073741824.0 2 ------- null}
h -t 1.016 -s 0 -d 4 -p cbr -e 1000 -c 0 -i 6 -a 0 -x {0.1 1073741824.0 -1 ------- null}
+ -t 1.016 -s 0 -d 1 -p cbr -e 1000 -c 0 -i 6 -a 0 -x {0.1 1073741824.0 2 ------- null}
- -t 1.016 -s 0 -d 1 -p cbr -e 1000 -c 0 -i 6 -a 0 -x {0.1 1073741824.0 2 ------- null}
h -t 1.016 -s 0 -d 1 -p cbr -e 1000 -c 0 -i 6 -a 0 -x {0.1 1073741824.0 -1 ------- null}
+ -t 1.016 -s 0 -d 2 -p cbr -e 1000 -c 0 -i 6 -a 0 -x {0.1 1073741824.0 2 ------- null}
- -t 1.016 -s 0 -d 2 -p cbr -e 1000 -c 0 -i 6 -a 0 -x {0.1 1073741824.0 2 ------- null}
h -t 1.016 -s 0 -d 2 -p cbr -e 1000 -c 0 -i 6 -a 0 -x {0.1 1073741824.0 -1 ------- null}
+ -t 1.016 -s 0 -d 3 -p cbr -e 1000 -c 0 -i 6 -a 0 -x {0.1 1073741824.0 2 ------- null}
- -t 1.016 -s 0 -d 3 -p cbr -e 1000 -c 0 -i 6 -a 0 -x {0.1 1073741824.0 2 ------- null}
h -t 1.016 -s 0 -d 3 -p cbr -e 1000 -c 0 -i 6 -a 0 -x {0.1 1073741824.0 -1 ------- null}
r -t 1.01808 -s 0 -d 4 -p cbr -e 1000 -c 0 -i 1 -a 0 -x {0.1 1073741824.0 1 ------- null}
+ -t 1.01808 -s 4 -d 0 -p prune -e 80 -c 30 -i 7 -a 30 -x {4.0 0.0 -1 ------- null}
- -t 1.01808 -s 4 -d 0 -p prune -e 80 -c 30 -i 7 -a 30 -x {4.0 0.0 -1 ------- null}
h -t 1.01808 -s 4 -d 0 -p prune -e 80 -c 30 -i 7 -a 30 -x {4.0 0.0 -1 ------- null}
r -t 1.01808 -s 0 -d 1 -p cbr -e 1000 -c 0 -i 1 -a 0 -x {0.1 1073741824.0 1 ------- null}
+ -t 1.01808 -s 1 -d 0 -p prune -e 80 -c 30 -i 8 -a 30 -x {1.0 0.0 -1 ------- null}
- -t 1.01808 -s 1 -d 0 -p prune -e 80 -c 30 -i 8 -a 30 -x {1.0 0.0 -1 ------- null}
h -t 1.01808 -s 1 -d 0 -p prune -e 80 -c 30 -i 8 -a 30 -x {1.0 0.0 -1 ------- null}
r -t 1.01808 -s 0 -d 2 -p cbr -e 1000 -c 0 -i 1 -a 0 -x {0.1 1073741824.0 1 ------- null}
+ -t 1.01808 -s 2 -d 0 -p prune -e 80 -c 30 -i 9 -a 30 -x {2.0 0.0 -1 ------- null}
- -t 1.01808 -s 2 -d 0 -p prune -e 80 -c 30 -i 9 -a 30 -x {2.0 0.0 -1 ------- null}
h -t 1.01808 -s 2 -d 0 -p prune -e 80 -c 30 -i 9 -a 30 -x {2.0 0.0 -1 ------- null}
r -t 1.01808 -s 0 -d 3 -p cbr -e 1000 -c 0 -i 1 -a 0 -x {0.1 1073741824.0 1 ------- null}
+ -t 1.01808 -s 3 -d 0 -p prune -e 80 -c 30 -i 10 -a 30 -x {3.0 0.0 -1 ------- null}
- -t 1.01808 -s 3 -d 0 -p prune -e 80 -c 30 -i 10 -a 30 -x {3.0 0.0 -1 ------- null}
h -t 1.01808 -s 3 -d 0 -p prune -e 80 -c 30 -i 10 -a 30 -x {3.0 0.0 -1 ------- null}
r -t 1.0200864 -s 4 -d 0 -p prune -e 80 -c 30 -i 2 -a 30 -x {4.0 0.0 -1 ------- null}
r -t 1.0200864 -s 1 -d 0 -p prune -e 80 -c 30 -i 3 -a 30 -x {1.0 0.0 -1 ------- null}
r -t 1.0200864 -s 2 -d 0 -p prune -e 80 -c 30 -i 4 -a 30 -x {2.0 0.0 -1 ------- null}
r -t 1.0200864 -s 3 -d 0 -p prune -e 80 -c 30 -i 5 -a 30 -x {3.0 0.0 -1 ------- null}
r -t 1.02608 -s 0 -d 4 -p cbr -e 1000 -c 0 -i 6 -a 0 -x {0.1 1073741824.0 2 ------- null}
+ -t 1.02608 -s 4 -d 0 -p prune -e 80 -c 30 -i 12 -a 30 -x {4.0 0.0 -1 ------- null}
- -t 1.02608 -s 4 -d 0 -p prune -e 80 -c 30 -i 12 -a 30 -x {4.0 0.0 -1 ------- null}
h -t 1.02608 -s 4 -d 0 -p prune -e 80 -c 30 -i 12 -a 30 -x {4.0 0.0 -1 ------- null}
r -t 1.02608 -s 0 -d 1 -p cbr -e 1000 -c 0 -i 6 -a 0 -x {0.1 1073741824.0 2 ------- null}
+ -t 1.02608 -s 1 -d 0 -p prune -e 80 -c 30 -i 13 -a 30 -x {1.0 0.0 -1 ------- null}
- -t 1.02608 -s 1 -d 0 -p prune -e 80 -c 30 -i 13 -a 30 -x {1.0 0.0 -1 ------- null}
h -t 1.02608 -s 1 -d 0 -p prune -e 80 -c 30 -i 13 -a 30 -x {1.0 0.0 -1 ------- null}
r -t 1.02608 -s 0 -d 2 -p cbr -e 1000 -c 0 -i 6 -a 0 -x {0.1 1073741824.0 2 ------- null}
+ -t 1.02608 -s 2 -d 0 -p prune -e 80 -c 30 -i 14 -a 30 -x {2.0 0.0 -1 ------- null}
- -t 1.02608 -s 2 -d 0 -p prune -e 80 -c 30 -i 14 -a 30 -x {2.0 0.0 -1 ------- null}
h -t 1.02608 -s 2 -d 0 -p prune -e 80 -c 30 -i 14 -a 30 -x {2.0 0.0 -1 ------- null}
r -t 1.02608 -s 0 -d 3 -p cbr -e 1000 -c 0 -i 6 -a 0 -x {0.1 1073741824.0 2 ------- null}
+ -t 1.02608 -s 3 -d 0 -p prune -e 80 -c 30 -i 15 -a 30 -x {3.0 0.0 -1 ------- null}
- -t 1.02608 -s 3 -d 0 -p prune -e 80 -c 30 -i 15 -a 30 -x {3.0 0.0 -1 ------- null}
h -t 1.02608 -s 3 -d 0 -p prune -e 80 -c 30 -i 15 -a 30 -x {3.0 0.0 -1 ------- null}
r -t 1.0280864 -s 4 -d 0 -p prune -e 80 -c 30 -i 7 -a 30 -x {4.0 0.0 -1 ------- null}
r -t 1.0280864 -s 1 -d 0 -p prune -e 80 -c 30 -i 8 -a 30 -x {1.0 0.0 -1 ------- null}
r -t 1.0280864 -s 2 -d 0 -p prune -e 80 -c 30 -i 9 -a 30 -x {2.0 0.0 -1 ------- null}
r -t 1.0280864 -s 3 -d 0 -p prune -e 80 -c 30 -i 10 -a 30 -x {3.0 0.0 -1 ------- null}
r -t 1.0360864 -s 4 -d 0 -p prune -e 80 -c 30 -i 12 -a 30 -x {4.0 0.0 -1 ------- null}
r -t 1.0360864 -s 1 -d 0 -p prune -e 80 -c 30 -i 13 -a 30 -x {1.0 0.0 -1 ------- null}
r -t 1.0360864 -s 2 -d 0 -p prune -e 80 -c 30 -i 14 -a 30 -x {2.0 0.0 -1 ------- null}
r -t 1.0360864 -s 3 -d 0 -p prune -e 80 -c 30 -i 15 -a 30 -x {3.0 0.0 -1 ------- null}
v -t 1.2 -e sim_annotation 1.2 1.2 1 join-group 1073741824
+ -t 1.2 -s 1 -d 0 -p graft -e 80 -c 31 -i 37 -a 31 -x {1.0 0.0 -1 ------- null}
- -t 1.2 -s 1 -d 0 -p graft -e 80 -c 31 -i 37 -a 31 -x {1.0 0.0 -1 ------- null}
h -t 1.2 -s 1 -d 0 -p graft -e 80 -c 31 -i 37 -a 31 -x {1.0 0.0 -1 ------- null}
r -t 1.2100064 -s 1 -d 0 -p graft -e 80 -c 31 -i 37 -a 31 -x {1.0 0.0 -1 ------- null}
+ -t 1.216 -s 0 -d 1 -p cbr -e 1000 -c 0 -i 40 -a 0 -x {0.1 1073741824.0 27 ------- null}
- -t 1.216 -s 0 -d 1 -p cbr -e 1000 -c 0 -i 40 -a 0 -x {0.1 1073741824.0 27 ------- null}
h -t 1.216 -s 0 -d 1 -p cbr -e 1000 -c 0 -i 40 -a 0 -x {0.1 1073741824.0 -1 ------- null}
+ -t 1.224 -s 0 -d 1 -p cbr -e 1000 -c 0 -i 41 -a 0 -x {0.1 1073741824.0 28 ------- null}
- -t 1.224 -s 0 -d 1 -p cbr -e 1000 -c 0 -i 41 -a 0 -x {0.1 1073741824.0 28 ------- null}
h -t 1.224 -s 0 -d 1 -p cbr -e 1000 -c 0 -i 41 -a 0 -x {0.1 1073741824.0 -1 ------- null}
r -t 1.22608 -s 0 -d 1 -p cbr -e 1000 -c 0 -i 40 -a 0 -x {0.1 1073741824.0 27 ------- null}
+ -t 1.232 -s 0 -d 1 -p cbr -e 1000 -c 0 -i 42 -a 0 -x {0.1 1073741824.0 29 ------- null}
- -t 1.232 -s 0 -d 1 -p cbr -e 1000 -c 0 -i 42 -a 0 -x {0.1 1073741824.0 29 ------- null}
h -t 1.232 -s 0 -d 1 -p cbr -e 1000 -c 0 -i 42 -a 0 -x {0.1 1073741824.0 -1 ------- null}
r -t 1.23408 -s 0 -d 1 -p cbr -e 1000 -c 0 -i 41 -a 0 -x {0.1 1073741824.0 28 ------- null}
+ -t 1.24 -s 0 -d 1 -p cbr -e 1000 -c 0 -i 43 -a 0 -x {0.1 1073741824.0 30 ------- null}
- -t 1.24 -s 0 -d 1 -p cbr -e 1000 -c 0 -i 43 -a 0 -x {0.1 1073741824.0 30 ------- null}
h -t 1.24 -s 0 -d 1 -p cbr -e 1000 -c 0 -i 43 -a 0 -x {0.1 1073741824.0 -1 ------- null}
r -t 1.24208 -s 0 -d 1 -p cbr -e 1000 -c 0 -i 42 -a 0 -x {0.1 1073741824.0 29 ------- null}
+ -t 1.248 -s 0 -d 1 -p cbr -e 1000 -c 0 -i 44 -a 0 -x {0.1 1073741824.0 31 ------- null}
- -t 1.248 -s 0 -d 1 -p cbr -e 1000 -c 0 -i 44 -a 0 -x {0.1 1073741824.0 31 ------- null}
h -t 1.248 -s 0 -d 1 -p cbr -e 1000 -c 0 -i 44 -a 0 -x {0.1 1073741824.0 -1 ------- null}
r -t 1.25008 -s 0 -d 1 -p cbr -e 1000 -c 0 -i 43 -a 0 -x {0.1 1073741824.0 30 ------- null}
+ -t 1.256 -s 0 -d 1 -p cbr -e 1000 -c 0 -i 45 -a 0 -x {0.1 1073741824.0 32 ------- null}
- -t 1.256 -s 0 -d 1 -p cbr -e 1000 -c 0 -i 45 -a 0 -x {0.1 1073741824.0 32 ------- null}
h -t 1.256 -s 0 -d 1 -p cbr -e 1000 -c 0 -i 45 -a 0 -x {0.1 1073741824.0 -1 ------- null}
r -t 1.25808 -s 0 -d 1 -p cbr -e 1000 -c 0 -i 44 -a 0 -x {0.1 1073741824.0 31 ------- null}
+ -t 1.264 -s 0 -d 1 -p cbr -e 1000 -c 0 -i 46 -a 0 -x {0.1 1073741824.0 33 ------- null}
- -t 1.264 -s 0 -d 1 -p cbr -e 1000 -c 0 -i 46 -a 0 -x {0.1 1073741824.0 33 ------- null}
h -t 1.264 -s 0 -d 1 -p cbr -e 1000 -c 0 -i 46 -a 0 -x {0.1 1073741824.0 -1 ------- null}
r -t 1.26608 -s 0 -d 1 -p cbr -e 1000 -c 0 -i 45 -a 0 -x {0.1 1073741824.0 32 ------- null}
+ -t 1.272 -s 0 -d 1 -p cbr -e 1000 -c 0 -i 47 -a 0 -x {0.1 1073741824.0 34 ------- null}
- -t 1.272 -s 0 -d 1 -p cbr -e 1000 -c 0 -i 47 -a 0 -x {0.1 1073741824.0 34 ------- null}
h -t 1.272 -s 0 -d 1 -p cbr -e 1000 -c 0 -i 47 -a 0 -x {0.1 1073741824.0 -1 ------- null}
r -t 1.27408 -s 0 -d 1 -p cbr -e 1000 -c 0 -i 46 -a 0 -x {0.1 1073741824.0 33 ------- null}
+ -t 1.28 -s 0 -d 1 -p cbr -e 1000 -c 0 -i 48 -a 0 -x {0.1 1073741824.0 35 ------- null}
- -t 1.28 -s 0 -d 1 -p cbr -e 1000 -c 0 -i 48 -a 0 -x {0.1 1073741824.0 35 ------- null}
h -t 1.28 -s 0 -d 1 -p cbr -e 1000 -c 0 -i 48 -a 0 -x {0.1 1073741824.0 -1 ------- null}
r -t 1.28208 -s 0 -d 1 -p cbr -e 1000 -c 0 -i 47 -a 0 -x {0.1 1073741824.0 34 ------- null}
+ -t 1.288 -s 0 -d 1 -p cbr -e 1000 -c 0 -i 49 -a 0 -x {0.1 1073741824.0 36 ------- null}
- -t 1.288 -s 0 -d 1 -p cbr -e 1000 -c 0 -i 49 -a 0 -x {0.1 1073741824.0 36 ------- null}
h -t 1.288 -s 0 -d 1 -p cbr -e 1000 -c 0 -i 49 -a 0 -x {0.1 1073741824.0 -1 ------- null}
r -t 1.29008 -s 0 -d 1 -p cbr -e 1000 -c 0 -i 48 -a 0 -x {0.1 1073741824.0 35 ------- null}
+ -t 1.296 -s 0 -d 1 -p cbr -e 1000 -c 0 -i 50 -a 0 -x {0.1 1073741824.0 37 ------- null}
- -t 1.296 -s 0 -d 1 -p cbr -e 1000 -c 0 -i 50 -a 0 -x {0.1 1073741824.0 37 ------- null}
h -t 1.296 -s 0 -d 1 -p cbr -e 1000 -c 0 -i 50 -a 0 -x {0.1 1073741824.0 -1 ------- null}
r -t 1.29808 -s 0 -d 1 -p cbr -e 1000 -c 0 -i 49 -a 0 -x {0.1 1073741824.0 36 ------- null}
+ -t 1.304 -s 0 -d 1 -p cbr -e 1000 -c 0 -i 51 -a 0 -x {0.1 1073741824.0 38 ------- null}
- -t 1.304 -s 0 -d 1 -p cbr -e 1000 -c 0 -i 51 -a 0 -x {0.1 1073741824.0 38 ------- null}
h -t 1.304 -s 0 -d 1 -p cbr -e 1000 -c 0 -i 51 -a 0 -x {0.1 1073741824.0 -1 ------- null}
r -t 1.30608 -s 0 -d 1 -p cbr -e 1000 -c 0 -i 50 -a 0 -x {0.1 1073741824.0 37 ------- null}
+ -t 1.312 -s 0 -d 1 -p cbr -e 1000 -c 0 -i 52 -a 0 -x {0.1 1073741824.0 39 ------- null}
- -t 1.312 -s 0 -d 1 -p cbr -e 1000 -c 0 -i 52 -a 0 -x {0.1 1073741824.0 39 ------- null}
h -t 1.312 -s 0 -d 1 -p cbr -e 1000 -c 0 -i 52 -a 0 -x {0.1 1073741824.0 -1 ------- null}
r -t 1.31408 -s 0 -d 1 -p cbr -e 1000 -c 0 -i 51 -a 0 -x {0.1 1073741824.0 38 ------- null}
+ -t 1.32 -s 0 -d 1 -p cbr -e 1000 -c 0 -i 53 -a 0 -x {0.1 1073741824.0 40 ------- null}
- -t 1.32 -s 0 -d 1 -p cbr -e 1000 -c 0 -i 53 -a 0 -x {0.1 1073741824.0 40 ------- null}
h -t 1.32 -s 0 -d 1 -p cbr -e 1000 -c 0 -i 53 -a 0 -x {0.1 1073741824.0 -1 ------- null}
r -t 1.32208 -s 0 -d 1 -p cbr -e 1000 -c 0 -i 52 -a 0 -x {0.1 1073741824.0 39 ------- null}
+ -t 1.328 -s 0 -d 1 -p cbr -e 1000 -c 0 -i 54 -a 0 -x {0.1 1073741824.0 41 ------- null}
- -t 1.328 -s 0 -d 1 -p cbr -e 1000 -c 0 -i 54 -a 0 -x {0.1 1073741824.0 41 ------- null}
h -t 1.328 -s 0 -d 1 -p cbr -e 1000 -c 0 -i 54 -a 0 -x {0.1 1073741824.0 -1 ------- null}
r -t 1.33008 -s 0 -d 1 -p cbr -e 1000 -c 0 -i 53 -a 0 -x {0.1 1073741824.0 40 ------- null}
+ -t 1.336 -s 0 -d 1 -p cbr -e 1000 -c 0 -i 55 -a 0 -x {0.1 1073741824.0 42 ------- null}
- -t 1.336 -s 0 -d 1 -p cbr -e 1000 -c 0 -i 55 -a 0 -x {0.1 1073741824.0 42 ------- null}
h -t 1.336 -s 0 -d 1 -p cbr -e 1000 -c 0 -i 55 -a 0 -x {0.1 1073741824.0 -1 ------- null}
r -t 1.33808 -s 0 -d 1 -p cbr -e 1000 -c 0 -i 54 -a 0 -x {0.1 1073741824.0 41 ------- null}
+ -t 1.344 -s 0 -d 1 -p cbr -e 1000 -c 0 -i 56 -a 0 -x {0.1 1073741824.0 43 ------- null}
- -t 1.344 -s 0 -d 1 -p cbr -e 1000 -c 0 -i 56 -a 0 -x {0.1 1073741824.0 43 ------- null}
h -t 1.344 -s 0 -d 1 -p cbr -e 1000 -c 0 -i 56 -a 0 -x {0.1 1073741824.0 -1 ------- null}
r -t 1.34608 -s 0 -d 1 -p cbr -e 1000 -c 0 -i 55 -a 0 -x {0.1 1073741824.0 42 ------- null}
+ -t 1.352 -s 0 -d 1 -p cbr -e 1000 -c 0 -i 57 -a 0 -x {0.1 1073741824.0 44 ------- null}
- -t 1.352 -s 0 -d 1 -p cbr -e 1000 -c 0 -i 57 -a 0 -x {0.1 1073741824.0 44 ------- null}
h -t 1.352 -s 0 -d 1 -p cbr -e 1000 -c 0 -i 57 -a 0 -x {0.1 1073741824.0 -1 ------- null}
r -t 1.35408 -s 0 -d 1 -p cbr -e 1000 -c 0 -i 56 -a 0 -x {0.1 1073741824.0 43 ------- null}
+ -t 1.36 -s 0 -d 1 -p cbr -e 1000 -c 0 -i 58 -a 0 -x {0.1 1073741824.0 45 ------- null}
- -t 1.36 -s 0 -d 1 -p cbr -e 1000 -c 0 -i 58 -a 0 -x {0.1 1073741824.0 45 ------- null}
h -t 1.36 -s 0 -d 1 -p cbr -e 1000 -c 0 -i 58 -a 0 -x {0.1 1073741824.0 -1 ------- null}
r -t 1.36208 -s 0 -d 1 -p cbr -e 1000 -c 0 -i 57 -a 0 -x {0.1 1073741824.0 44 ------- null}
+ -t 1.368 -s 0 -d 1 -p cbr -e 1000 -c 0 -i 59 -a 0 -x {0.1 1073741824.0 46 ------- null}
- -t 1.368 -s 0 -d 1 -p cbr -e 1000 -c 0 -i 59 -a 0 -x {0.1 1073741824.0 46 ------- null}
h -t 1.368 -s 0 -d 1 -p cbr -e 1000 -c 0 -i 59 -a 0 -x {0.1 1073741824.0 -1 ------- null}
r -t 1.37008 -s 0 -d 1 -p cbr -e 1000 -c 0 -i 58 -a 0 -x {0.1 1073741824.0 45 ------- null}
+ -t 1.376 -s 0 -d 1 -p cbr -e 1000 -c 0 -i 60 -a 0 -x {0.1 1073741824.0 47 ------- null}
- -t 1.376 -s 0 -d 1 -p cbr -e 1000 -c 0 -i 60 -a 0 -x {0.1 1073741824.0 47 ------- null}
h -t 1.376 -s 0 -d 1 -p cbr -e 1000 -c 0 -i 60 -a 0 -x {0.1 1073741824.0 -1 ------- null}
r -t 1.37808 -s 0 -d 1 -p cbr -e 1000 -c 0 -i 59 -a 0 -x {0.1 1073741824.0 46 ------- null}
+ -t 1.384 -s 0 -d 1 -p cbr -e 1000 -c 0 -i 61 -a 0 -x {0.1 1073741824.0 48 ------- null}
- -t 1.384 -s 0 -d 1 -p cbr -e 1000 -c 0 -i 61 -a 0 -x {0.1 1073741824.0 48 ------- null}
h -t 1.384 -s 0 -d 1 -p cbr -e 1000 -c 0 -i 61 -a 0 -x {0.1 1073741824.0 -1 ------- null}
r -t 1.38608 -s 0 -d 1 -p cbr -e 1000 -c 0 -i 60 -a 0 -x {0.1 1073741824.0 47 ------- null}
+ -t 1.392 -s 0 -d 1 -p cbr -e 1000 -c 0 -i 62 -a 0 -x {0.1 1073741824.0 49 ------- null}
- -t 1.392 -s 0 -d 1 -p cbr -e 1000 -c 0 -i 62 -a 0 -x {0.1 1073741824.0 49 ------- null}
h -t 1.392 -s 0 -d 1 -p cbr -e 1000 -c 0 -i 62 -a 0 -x {0.1 1073741824.0 -1 ------- null}
r -t 1.39408 -s 0 -d 1 -p cbr -e 1000 -c 0 -i 61 -a 0 -x {0.1 1073741824.0 48 ------- null}
v -t 1.4 -e sim_annotation 1.4 1.3999999999999999 2 join-group 1073741824
+ -t 1.4 -s 2 -d 0 -p graft -e 80 -c 31 -i 63 -a 31 -x {2.0 0.0 -1 ------- null}
- -t 1.4 -s 2 -d 0 -p graft -e 80 -c 31 -i 63 -a 31 -x {2.0 0.0 -1 ------- null}
h -t 1.4 -s 2 -d 0 -p graft -e 80 -c 31 -i 63 -a 31 -x {2.0 0.0 -1 ------- null}
+ -t 1.4 -s 0 -d 1 -p cbr -e 1000 -c 0 -i 64 -a 0 -x {0.1 1073741824.0 50 ------- null}
- -t 1.4 -s 0 -d 1 -p cbr -e 1000 -c 0 -i 64 -a 0 -x {0.1 1073741824.0 50 ------- null}
h -t 1.4 -s 0 -d 1 -p cbr -e 1000 -c 0 -i 64 -a 0 -x {0.1 1073741824.0 -1 ------- null}
r -t 1.40208 -s 0 -d 1 -p cbr -e 1000 -c 0 -i 62 -a 0 -x {0.1 1073741824.0 49 ------- null}
+ -t 1.408 -s 0 -d 1 -p cbr -e 1000 -c 0 -i 65 -a 0 -x {0.1 1073741824.0 51 ------- null}
- -t 1.408 -s 0 -d 1 -p cbr -e 1000 -c 0 -i 65 -a 0 -x {0.1 1073741824.0 51 ------- null}
h -t 1.408 -s 0 -d 1 -p cbr -e 1000 -c 0 -i 65 -a 0 -x {0.1 1073741824.0 -1 ------- null}
r -t 1.4100064 -s 2 -d 0 -p graft -e 80 -c 31 -i 63 -a 31 -x {2.0 0.0 -1 ------- null}
r -t 1.41008 -s 0 -d 1 -p cbr -e 1000 -c 0 -i 64 -a 0 -x {0.1 1073741824.0 50 ------- null}
+ -t 1.416 -s 0 -d 1 -p cbr -e 1000 -c 0 -i 66 -a 0 -x {0.1 1073741824.0 52 ------- null}
- -t 1.416 -s 0 -d 1 -p cbr -e 1000 -c 0 -i 66 -a 0 -x {0.1 1073741824.0 52 ------- null}
h -t 1.416 -s 0 -d 1 -p cbr -e 1000 -c 0 -i 66 -a 0 -x {0.1 1073741824.0 -1 ------- null}
+ -t 1.416 -s 0 -d 2 -p cbr -e 1000 -c 0 -i 66 -a 0 -x {0.1 1073741824.0 52 ------- null}
- -t 1.416 -s 0 -d 2 -p cbr -e 1000 -c 0 -i 66 -a 0 -x {0.1 1073741824.0 52 ------- null}
h -t 1.416 -s 0 -d 2 -p cbr -e 1000 -c 0 -i 66 -a 0 -x {0.1 1073741824.0 -1 ------- null}
r -t 1.41808 -s 0 -d 1 -p cbr -e 1000 -c 0 -i 65 -a 0 -x {0.1 1073741824.0 51 ------- null}
+ -t 1.424 -s 0 -d 1 -p cbr -e 1000 -c 0 -i 67 -a 0 -x {0.1 1073741824.0 53 ------- null}
- -t 1.424 -s 0 -d 1 -p cbr -e 1000 -c 0 -i 67 -a 0 -x {0.1 1073741824.0 53 ------- null}
h -t 1.424 -s 0 -d 1 -p cbr -e 1000 -c 0 -i 67 -a 0 -x {0.1 1073741824.0 -1 ------- null}
+ -t 1.424 -s 0 -d 2 -p cbr -e 1000 -c 0 -i 67 -a 0 -x {0.1 1073741824.0 53 ------- null}
- -t 1.424 -s 0 -d 2 -p cbr -e 1000 -c 0 -i 67 -a 0 -x {0.1 1073741824.0 53 ------- null}
h -t 1.424 -s 0 -d 2 -p cbr -e 1000 -c 0 -i 67 -a 0 -x {0.1 1073741824.0 -1 ------- null}
r -t 1.42608 -s 0 -d 1 -p cbr -e 1000 -c 0 -i 66 -a 0 -x {0.1 1073741824.0 52 ------- null}
r -t 1.42608 -s 0 -d 2 -p cbr -e 1000 -c 0 -i 66 -a 0 -x {0.1 1073741824.0 52 ------- null}
+ -t 1.432 -s 0 -d 1 -p cbr -e 1000 -c 0 -i 68 -a 0 -x {0.1 1073741824.0 54 ------- null}
- -t 1.432 -s 0 -d 1 -p cbr -e 1000 -c 0 -i 68 -a 0 -x {0.1 1073741824.0 54 ------- null}
h -t 1.432 -s 0 -d 1 -p cbr -e 1000 -c 0 -i 68 -a 0 -x {0.1 1073741824.0 -1 ------- null}
+ -t 1.432 -s 0 -d 2 -p cbr -e 1000 -c 0 -i 68 -a 0 -x {0.1 1073741824.0 54 ------- null}
- -t 1.432 -s 0 -d 2 -p cbr -e 1000 -c 0 -i 68 -a 0 -x {0.1 1073741824.0 54 ------- null}
h -t 1.432 -s 0 -d 2 -p cbr -e 1000 -c 0 -i 68 -a 0 -x {0.1 1073741824.0 -1 ------- null}
r -t 1.43408 -s 0 -d 1 -p cbr -e 1000 -c 0 -i 67 -a 0 -x {0.1 1073741824.0 53 ------- null}
r -t 1.43408 -s 0 -d 2 -p cbr -e 1000 -c 0 -i 67 -a 0 -x {0.1 1073741824.0 53 ------- null}
+ -t 1.44 -s 0 -d 1 -p cbr -e 1000 -c 0 -i 69 -a 0 -x {0.1 1073741824.0 55 ------- null}
- -t 1.44 -s 0 -d 1 -p cbr -e 1000 -c 0 -i 69 -a 0 -x {0.1 1073741824.0 55 ------- null}
h -t 1.44 -s 0 -d 1 -p cbr -e 1000 -c 0 -i 69 -a 0 -x {0.1 1073741824.0 -1 ------- null}
+ -t 1.44 -s 0 -d 2 -p cbr -e 1000 -c 0 -i 69 -a 0 -x {0.1 1073741824.0 55 ------- null}
- -t 1.44 -s 0 -d 2 -p cbr -e 1000 -c 0 -i 69 -a 0 -x {0.1 1073741824.0 55 ------- null}
h -t 1.44 -s 0 -d 2 -p cbr -e 1000 -c 0 -i 69 -a 0 -x {0.1 1073741824.0 -1 ------- null}
r -t 1.44208 -s 0 -d 1 -p cbr -e 1000 -c 0 -i 68 -a 0 -x {0.1 1073741824.0 54 ------- null}
r -t 1.44208 -s 0 -d 2 -p cbr -e 1000 -c 0 -i 68 -a 0 -x {0.1 1073741824.0 54 ------- null}
+ -t 1.448 -s 0 -d 1 -p cbr -e 1000 -c 0 -i 70 -a 0 -x {0.1 1073741824.0 56 ------- null}
- -t 1.448 -s 0 -d 1 -p cbr -e 1000 -c 0 -i 70 -a 0 -x {0.1 1073741824.0 56 ------- null}
h -t 1.448 -s 0 -d 1 -p cbr -e 1000 -c 0 -i 70 -a 0 -x {0.1 1073741824.0 -1 ------- null}
+ -t 1.448 -s 0 -d 2 -p cbr -e 1000 -c 0 -i 70 -a 0 -x {0.1 1073741824.0 56 ------- null}
- -t 1.448 -s 0 -d 2 -p cbr -e 1000 -c 0 -i 70 -a 0 -x {0.1 1073741824.0 56 ------- null}
h -t 1.448 -s 0 -d 2 -p cbr -e 1000 -c 0 -i 70 -a 0 -x {0.1 1073741824.0 -1 ------- null}
r -t 1.45008 -s 0 -d 1 -p cbr -e 1000 -c 0 -i 69 -a 0 -x {0.1 1073741824.0 55 ------- null}
r -t 1.45008 -s 0 -d 2 -p cbr -e 1000 -c 0 -i 69 -a 0 -x {0.1 1073741824.0 55 ------- null}
+ -t 1.456 -s 0 -d 1 -p cbr -e 1000 -c 0 -i 71 -a 0 -x {0.1 1073741824.0 57 ------- null}
- -t 1.456 -s 0 -d 1 -p cbr -e 1000 -c 0 -i 71 -a 0 -x {0.1 1073741824.0 57 ------- null}
h -t 1.456 -s 0 -d 1 -p cbr -e 1000 -c 0 -i 71 -a 0 -x {0.1 1073741824.0 -1 ------- null}
+ -t 1.456 -s 0 -d 2 -p cbr -e 1000 -c 0 -i 71 -a 0 -x {0.1 1073741824.0 57 ------- null}
- -t 1.456 -s 0 -d 2 -p cbr -e 1000 -c 0 -i 71 -a 0 -x {0.1 1073741824.0 57 ------- null}
h -t 1.456 -s 0 -d 2 -p cbr -e 1000 -c 0 -i 71 -a 0 -x {0.1 1073741824.0 -1 ------- null}
r -t 1.45808 -s 0 -d 1 -p cbr -e 1000 -c 0 -i 70 -a 0 -x {0.1 1073741824.0 56 ------- null}
r -t 1.45808 -s 0 -d 2 -p cbr -e 1000 -c 0 -i 70 -a 0 -x {0.1 1073741824.0 56 ------- null}
+ -t 1.464 -s 0 -d 1 -p cbr -e 1000 -c 0 -i 72 -a 0 -x {0.1 1073741824.0 58 ------- null}
- -t 1.464 -s 0 -d 1 -p cbr -e 1000 -c 0 -i 72 -a 0 -x {0.1 1073741824.0 58 ------- null}
h -t 1.464 -s 0 -d 1 -p cbr -e 1000 -c 0 -i 72 -a 0 -x {0.1 1073741824.0 -1 ------- null}
+ -t 1.464 -s 0 -d 2 -p cbr -e 1000 -c 0 -i 72 -a 0 -x {0.1 1073741824.0 58 ------- null}
- -t 1.464 -s 0 -d 2 -p cbr -e 1000 -c 0 -i 72 -a 0 -x {0.1 1073741824.0 58 ------- null}
h -t 1.464 -s 0 -d 2 -p cbr -e 1000 -c 0 -i 72 -a 0 -x {0.1 1073741824.0 -1 ------- null}
r -t 1.46608 -s 0 -d 1 -p cbr -e 1000 -c 0 -i 71 -a 0 -x {0.1 1073741824.0 57 ------- null}
r -t 1.46608 -s 0 -d 2 -p cbr -e 1000 -c 0 -i 71 -a 0 -x {0.1 1073741824.0 57 ------- null}
+ -t 1.472 -s 0 -d 1 -p cbr -e 1000 -c 0 -i 73 -a 0 -x {0.1 1073741824.0 59 ------- null}
- -t 1.472 -s 0 -d 1 -p cbr -e 1000 -c 0 -i 73 -a 0 -x {0.1 1073741824.0 59 ------- null}
h -t 1.472 -s 0 -d 1 -p cbr -e 1000 -c 0 -i 73 -a 0 -x {0.1 1073741824.0 -1 ------- null}
+ -t 1.472 -s 0 -d 2 -p cbr -e 1000 -c 0 -i 73 -a 0 -x {0.1 1073741824.0 59 ------- null}
- -t 1.472 -s 0 -d 2 -p cbr -e 1000 -c 0 -i 73 -a 0 -x {0.1 1073741824.0 59 ------- null}
h -t 1.472 -s 0 -d 2 -p cbr -e 1000 -c 0 -i 73 -a 0 -x {0.1 1073741824.0 -1 ------- null}
r -t 1.47408 -s 0 -d 1 -p cbr -e 1000 -c 0 -i 72 -a 0 -x {0.1 1073741824.0 58 ------- null}
r -t 1.47408 -s 0 -d 2 -p cbr -e 1000 -c 0 -i 72 -a 0 -x {0.1 1073741824.0 58 ------- null}
+ -t 1.48 -s 0 -d 1 -p cbr -e 1000 -c 0 -i 74 -a 0 -x {0.1 1073741824.0 60 ------- null}
- -t 1.48 -s 0 -d 1 -p cbr -e 1000 -c 0 -i 74 -a 0 -x {0.1 1073741824.0 60 ------- null}
h -t 1.48 -s 0 -d 1 -p cbr -e 1000 -c 0 -i 74 -a 0 -x {0.1 1073741824.0 -1 ------- null}
+ -t 1.48 -s 0 -d 2 -p cbr -e 1000 -c 0 -i 74 -a 0 -x {0.1 1073741824.0 60 ------- null}
- -t 1.48 -s 0 -d 2 -p cbr -e 1000 -c 0 -i 74 -a 0 -x {0.1 1073741824.0 60 ------- null}
h -t 1.48 -s 0 -d 2 -p cbr -e 1000 -c 0 -i 74 -a 0 -x {0.1 1073741824.0 -1 ------- null}
r -t 1.48208 -s 0 -d 1 -p cbr -e 1000 -c 0 -i 73 -a 0 -x {0.1 1073741824.0 59 ------- null}
r -t 1.48208 -s 0 -d 2 -p cbr -e 1000 -c 0 -i 73 -a 0 -x {0.1 1073741824.0 59 ------- null}
+ -t 1.488 -s 0 -d 1 -p cbr -e 1000 -c 0 -i 75 -a 0 -x {0.1 1073741824.0 61 ------- null}
- -t 1.488 -s 0 -d 1 -p cbr -e 1000 -c 0 -i 75 -a 0 -x {0.1 1073741824.0 61 ------- null}
h -t 1.488 -s 0 -d 1 -p cbr -e 1000 -c 0 -i 75 -a 0 -x {0.1 1073741824.0 -1 ------- null}
+ -t 1.488 -s 0 -d 2 -p cbr -e 1000 -c 0 -i 75 -a 0 -x {0.1 1073741824.0 61 ------- null}
- -t 1.488 -s 0 -d 2 -p cbr -e 1000 -c 0 -i 75 -a 0 -x {0.1 1073741824.0 61 ------- null}
h -t 1.488 -s 0 -d 2 -p cbr -e 1000 -c 0 -i 75 -a 0 -x {0.1 1073741824.0 -1 ------- null}
r -t 1.49008 -s 0 -d 1 -p cbr -e 1000 -c 0 -i 74 -a 0 -x {0.1 1073741824.0 60 ------- null}
r -t 1.49008 -s 0 -d 2 -p cbr -e 1000 -c 0 -i 74 -a 0 -x {0.1 1073741824.0 60 ------- null}
+ -t 1.496 -s 0 -d 1 -p cbr -e 1000 -c 0 -i 76 -a 0 -x {0.1 1073741824.0 62 ------- null}
- -t 1.496 -s 0 -d 1 -p cbr -e 1000 -c 0 -i 76 -a 0 -x {0.1 1073741824.0 62 ------- null}
h -t 1.496 -s 0 -d 1 -p cbr -e 1000 -c 0 -i 76 -a 0 -x {0.1 1073741824.0 -1 ------- null}
+ -t 1.496 -s 0 -d 2 -p cbr -e 1000 -c 0 -i 76 -a 0 -x {0.1 1073741824.0 62 ------- null}
- -t 1.496 -s 0 -d 2 -p cbr -e 1000 -c 0 -i 76 -a 0 -x {0.1 1073741824.0 62 ------- null}
h -t 1.496 -s 0 -d 2 -p cbr -e 1000 -c 0 -i 76 -a 0 -x {0.1 1073741824.0 -1 ------- null}
r -t 1.49808 -s 0 -d 1 -p cbr -e 1000 -c 0 -i 75 -a 0 -x {0.1 1073741824.0 61 ------- null}
r -t 1.49808 -s 0 -d 2 -p cbr -e 1000 -c 0 -i 75 -a 0 -x {0.1 1073741824.0 61 ------- null}
+ -t 1.504 -s 0 -d 1 -p cbr -e 1000 -c 0 -i 77 -a 0 -x {0.1 1073741824.0 63 ------- null}
- -t 1.504 -s 0 -d 1 -p cbr -e 1000 -c 0 -i 77 -a 0 -x {0.1 1073741824.0 63 ------- null}
h -t 1.504 -s 0 -d 1 -p cbr -e 1000 -c 0 -i 77 -a 0 -x {0.1 1073741824.0 -1 ------- null}
+ -t 1.504 -s 0 -d 2 -p cbr -e 1000 -c 0 -i 77 -a 0 -x {0.1 1073741824.0 63 ------- null}
- -t 1.504 -s 0 -d 2 -p cbr -e 1000 -c 0 -i 77 -a 0 -x {0.1 1073741824.0 63 ------- null}
h -t 1.504 -s 0 -d 2 -p cbr -e 1000 -c 0 -i 77 -a 0 -x {0.1 1073741824.0 -1 ------- null}
r -t 1.50608 -s 0 -d 1 -p cbr -e 1000 -c 0 -i 76 -a 0 -x {0.1 1073741824.0 62 ------- null}
r -t 1.50608 -s 0 -d 2 -p cbr -e 1000 -c 0 -i 76 -a 0 -x {0.1 1073741824.0 62 ------- null}
+ -t 1.512 -s 0 -d 1 -p cbr -e 1000 -c 0 -i 78 -a 0 -x {0.1 1073741824.0 64 ------- null}
- -t 1.512 -s 0 -d 1 -p cbr -e 1000 -c 0 -i 78 -a 0 -x {0.1 1073741824.0 64 ------- null}
h -t 1.512 -s 0 -d 1 -p cbr -e 1000 -c 0 -i 78 -a 0 -x {0.1 1073741824.0 -1 ------- null}
+ -t 1.512 -s 0 -d 2 -p cbr -e 1000 -c 0 -i 78 -a 0 -x {0.1 1073741824.0 64 ------- null}
- -t 1.512 -s 0 -d 2 -p cbr -e 1000 -c 0 -i 78 -a 0 -x {0.1 1073741824.0 64 ------- null}
h -t 1.512 -s 0 -d 2 -p cbr -e 1000 -c 0 -i 78 -a 0 -x {0.1 1073741824.0 -1 ------- null}
r -t 1.51408 -s 0 -d 1 -p cbr -e 1000 -c 0 -i 77 -a 0 -x {0.1 1073741824.0 63 ------- null}
r -t 1.51408 -s 0 -d 2 -p cbr -e 1000 -c 0 -i 77 -a 0 -x {0.1 1073741824.0 63 ------- null}
+ -t 1.52 -s 0 -d 1 -p cbr -e 1000 -c 0 -i 79 -a 0 -x {0.1 1073741824.0 65 ------- null}
- -t 1.52 -s 0 -d 1 -p cbr -e 1000 -c 0 -i 79 -a 0 -x {0.1 1073741824.0 65 ------- null}
h -t 1.52 -s 0 -d 1 -p cbr -e 1000 -c 0 -i 79 -a 0 -x {0.1 1073741824.0 -1 ------- null}
+ -t 1.52 -s 0 -d 2 -p cbr -e 1000 -c 0 -i 79 -a 0 -x {0.1 1073741824.0 65 ------- null}
- -t 1.52 -s 0 -d 2 -p cbr -e 1000 -c 0 -i 79 -a 0 -x {0.1 1073741824.0 65 ------- null}
h -t 1.52 -s 0 -d 2 -p cbr -e 1000 -c 0 -i 79 -a 0 -x {0.1 1073741824.0 -1 ------- null}
r -t 1.52208 -s 0 -d 1 -p cbr -e 1000 -c 0 -i 78 -a 0 -x {0.1 1073741824.0 64 ------- null}
r -t 1.52208 -s 0 -d 2 -p cbr -e 1000 -c 0 -i 78 -a 0 -x {0.1 1073741824.0 64 ------- null}
+ -t 1.528 -s 0 -d 1 -p cbr -e 1000 -c 0 -i 80 -a 0 -x {0.1 1073741824.0 66 ------- null}
- -t 1.528 -s 0 -d 1 -p cbr -e 1000 -c 0 -i 80 -a 0 -x {0.1 1073741824.0 66 ------- null}
h -t 1.528 -s 0 -d 1 -p cbr -e 1000 -c 0 -i 80 -a 0 -x {0.1 1073741824.0 -1 ------- null}
+ -t 1.528 -s 0 -d 2 -p cbr -e 1000 -c 0 -i 80 -a 0 -x {0.1 1073741824.0 66 ------- null}
- -t 1.528 -s 0 -d 2 -p cbr -e 1000 -c 0 -i 80 -a 0 -x {0.1 1073741824.0 66 ------- null}
h -t 1.528 -s 0 -d 2 -p cbr -e 1000 -c 0 -i 80 -a 0 -x {0.1 1073741824.0 -1 ------- null}
r -t 1.53008 -s 0 -d 1 -p cbr -e 1000 -c 0 -i 79 -a 0 -x {0.1 1073741824.0 65 ------- null}
r -t 1.53008 -s 0 -d 2 -p cbr -e 1000 -c 0 -i 79 -a 0 -x {0.1 1073741824.0 65 ------- null}
+ -t 1.536 -s 0 -d 1 -p cbr -e 1000 -c 0 -i 81 -a 0 -x {0.1 1073741824.0 67 ------- null}
- -t 1.536 -s 0 -d 1 -p cbr -e 1000 -c 0 -i 81 -a 0 -x {0.1 1073741824.0 67 ------- null}
h -t 1.536 -s 0 -d 1 -p cbr -e 1000 -c 0 -i 81 -a 0 -x {0.1 1073741824.0 -1 ------- null}
+ -t 1.536 -s 0 -d 2 -p cbr -e 1000 -c 0 -i 81 -a 0 -x {0.1 1073741824.0 67 ------- null}
- -t 1.536 -s 0 -d 2 -p cbr -e 1000 -c 0 -i 81 -a 0 -x {0.1 1073741824.0 67 ------- null}
h -t 1.536 -s 0 -d 2 -p cbr -e 1000 -c 0 -i 81 -a 0 -x {0.1 1073741824.0 -1 ------- null}