V -t * -v 1.0a5 -a 0
A -t * -n 1 -p 0 -o 0x7fffffff -c 30 -a 1
A -t * -h 1 -m 1073741823 -s 0
n -t * -a 0 -s 0 -S UP -v circle -c black -i black
n -t * -a 1 -s 1 -S UP -v circle -c black -i black
n -t * -a 2 -s 2 -S UP -v circle -c black -i black
n -t * -a 3 -s 3 -S UP -v circle -c black -i black
l -t * -s 0 -d 2 -S UP -r 1000000 -D 0.10000000000000001 -c black -o right-down
l -t * -s 1 -d 2 -S UP -r 1000000 -D 0.10000000000000001 -c black -o left-down
l -t * -s 2 -d 3 -S UP -r 1000000 -D 0.10000000000000001 -c black -o right-down
+ -t 1 -s 0 -d 2 -p tcp -e 40 -c 0 -i 0 -a 0 -x {0.0 3.0 0 ------- null}
- -t 1 -s 0 -d 2 -p tcp -e 40 -c 0 -i 0 -a 0 -x {0.0 3.0 0 ------- null}
h -t 1 -s 0 -d 2 -p tcp -e 40 -c 0 -i 0 -a 0 -x {0.0 3.0 -1 ------- null}
r -t 1.10032 -s 0 -d 2 -p tcp -e 40 -c 0 -i 0 -a 0 -x {0.0 3.0 0 ------- null}
+ -t 1.10032 -s 2 -d 3 -p tcp -e 40 -c 0 -i 0 -a 0 -x {0.0 3.0 0 ------- null}
- -t 1.10032 -s 2 -d 3 -p tcp -e 40 -c 0 -i 0 -a 0 -x {0.0 3.0 0 ------- null}
h -t 1.10032 -s 2 -d 3 -p tcp -e 40 -c 0 -i 0 -a 0 -x {0.0 3.0 -1 ------- null}
r -t 1.20064 -s 2 -d 3 -p tcp -e 40 -c 0 -i 0 -a 0 -x {0.0 3.0 0 ------- null}
+ -t 1.20064 -s 3 -d 2 -p ack -e 40 -c 0 -i 1 -a 0 -x {3.0 0.0 0 ------- null}
- -t 1.20064 -s 3 -d 2 -p ack -e 40 -c 0 -i 1 -a 0 -x {3.0 0.0 0 ------- null}
h -t 1.20064 -s 3 -d 2 -p ack -e 40 -c 0 -i 1 -a 0 -x {3.0 0.0 -1 ------- null}
r -t 1.30096 -s 3 -d 2 -p ack -e 40 -c 0 -i 1 -a 0 -x {3.0 0.0 0 ------- null}
+ -t 1.30096 -s 2 -d 0 -p ack -e 40 -c 0 -i 1 -a 0 -x {3.0 0.0 0 ------- null}
- -t 1.30096 -s 2 -d 0 -p ack -e 40 -c 0 -i 1 -a 0 -x {3.0 0.0 0 ------- null}
h -t 1.30096 -s 2 -d 0 -p ack -e 40 -c 0 -i 1 -a 0 -x {3.0 0.0 -1 ------- null}
r -t 1.40128 -s 2 -d 0 -p ack -e 40 -c 0 -i 1 -a 0 -x {3.0 0.0 0 ------- null}
+ -t 1.40128 -s 0 -d 2 -p tcp -e 1040 -c 0 -i 2 -a 0 -x {0.0 3.0 1 ------- null}
- -t 1.40128 -s 0 -d 2 -p tcp -e 1040 -c 0 -i 2 -a 0 -x {0.0 3.0 1 ------- null}
h -t 1.40128 -s 0 -d 2 -p tcp -e 1040 -c 0 -i 2 -a 0 -x {0.0 3.0 -1 ------- null}
+ -t 1.40128 -s 0 -d 2 -p tcp -e 1040 -c 0 -i 3 -a 0 -x {0.0 3.0 2 ------- null}
- -t 1.4096 -s 0 -d 2 -p tcp -e 1040 -c 0 -i 3 -a 0 -x {0.0 3.0 2 ------- null}
h -t 1.4096 -s 0 -d 2 -p tcp -e 1040 -c 0 -i 3 -a 0 -x {0.0 3.0 -1 ------- null}
r -t 1.5096 -s 0 -d 2 -p tcp -e 1040 -c 0 -i 2 -a 0 -x {0.0 3.0 1 ------- null}
+ -t 1.5096 -s 2 -d 3 -p tcp -e 1040 -c 0 -i 2 -a 0 -x {0.0 3.0 1 ------- null}
- -t 1.5096 -s 2 -d 3 -p tcp -e 1040 -c 0 -i 2 -a 0 -x {0.0 3.0 1 ------- null}
h -t 1.5096 -s 2 -d 3 -p tcp -e 1040 -c 0 -i 2 -a 0 -x {0.0 3.0 -1 ------- null}
r -t 1.51792 -s 0 -d 2 -p tcp -e 1040 -c 0 -i 3 -a 0 -x {0.0 3.0 2 ------- null}
+ -t 1.51792 -s 2 -d 3 -p tcp -e 1040 -c 0 -i 3 -a 0 -x {0.0 3.0 2 ------- null}
- -t 1.51792 -s 2 -d 3 -p tcp -e 1040 -c 0 -i 3 -a 0 -x {0.0 3.0 2 ------- null}
h -t 1.51792 -s 2 -d 3 -p tcp -e 1040 -c 0 -i 3 -a 0 -x {0.0 3.0 -1 ------- null}
r -t 1.61792 -s 2 -d 3 -p tcp -e 1040 -c 0 -i 2 -a 0 -x {0.0 3.0 1 ------- null}
+ -t 1.61792 -s 3 -d 2 -p ack -e 40 -c 0 -i 4 -a 0 -x {3.0 0.0 1 ------- null}
- -t 1.61792 -s 3 -d 2 -p ack -e 40 -c 0 -i 4 -a 0 -x {3.0 0.0 1 ------- null}
h -t 1.61792 -s 3 -d 2 -p ack -e 40 -c 0 -i 4 -a 0 -x {3.0 0.0 -1 ------- null}
r -t 1.62624 -s 2 -d 3 -p tcp -e 1040 -c 0 -i 3 -a 0 -x {0.0 3.0 2 ------- null}
+ -t 1.62624 -s 3 -d 2 -p ack -e 40 -c 0 -i 5 -a 0 -x {3.0 0.0 2 ------- null}
- -t 1.62624 -s 3 -d 2 -p ack -e 40 -c 0 -i 5 -a 0 -x {3.0 0.0 2 ------- null}
h -t 1.62624 -s 3 -d 2 -p ack -e 40 -c 0 -i 5 -a 0 -x {3.0 0.0 -1 ------- null}
r -t 1.71824 -s 3 -d 2 -p ack -e 40 -c 0 -i 4 -a 0 -x {3.0 0.0 1 ------- null}
+ -t 1.71824 -s 2 -d 0 -p ack -e 40 -c 0 -i 4 -a 0 -x {3.0 0.0 1 ------- null}
- -t 1.71824 -s 2 -d 0 -p ack -e 40 -c 0 -i 4 -a 0 -x {3.0 0.0 1 ------- null}
h -t 1.71824 -s 2 -d 0 -p ack -e 40 -c 0 -i 4 -a 0 -x {3.0 0.0 -1 ------- null}
r -t 1.72656 -s 3 -d 2 -p ack -e 40 -c 0 -i 5 -a 0 -x {3.0 0.0 2 ------- null}
+ -t 1.72656 -s 2 -d 0 -p ack -e 40 -c 0 -i 5 -a 0 -x {3.0 0.0 2 ------- null}
- -t 1.72656 -s 2 -d 0 -p ack -e 40 -c 0 -i 5 -a 0 -x {3.0 0.0 2 ------- null}
h -t 1.72656 -s 2 -d 0 -p ack -e 40 -c 0 -i 5 -a 0 -x {3.0 0.0 -1 ------- null}
r -t 1.81856 -s 2 -d 0 -p ack -e 40 -c 0 -i 4 -a 0 -x {3.0 0.0 1 ------- null}
+ -t 1.81856 -s 0 -d 2 -p tcp -e 1040 -c 0 -i 6 -a 0 -x {0.0 3.0 3 ------- null}
- -t 1.81856 -s 0 -d 2 -p tcp -e 1040 -c 0 -i 6 -a 0 -x {0.0 3.0 3 ------- null}
h -t 1.81856 -s 0 -d 2 -p tcp -e 1040 -c 0 -i 6 -a 0 -x {0.0 3.0 -1 ------- null}
+ -t 1.81856 -s 0 -d 2 -p tcp -e 1040 -c 0 -i 7 -a 0 -x {0.0 3.0 4 ------- null}
r -t 1.82688 -s 2 -d 0 -p ack -e 40 -c 0 -i 5 -a 0 -x {3.0 0.0 2 ------- null}
+ -t 1.82688 -s 0 -d 2 -p tcp -e 1040 -c 0 -i 8 -a 0 -x {0.0 3.0 5 ------- null}
+ -t 1.82688 -s 0 -d 2 -p tcp -e 1040 -c 0 -i 9 -a 0 -x {0.0 3.0 6 ------- null}
- -t 1.82688 -s 0 -d 2 -p tcp -e 1040 -c 0 -i 7 -a 0 -x {0.0 3.0 4 ------- null}
h -t 1.82688 -s 0 -d 2 -p tcp -e 1040 -c 0 -i 7 -a 0 -x {0.0 3.0 -1 ------- null}
- -t 1.8352 -s 0 -d 2 -p tcp -e 1040 -c 0 -i 8 -a 0 -x {0.0 3.0 5 ------- null}
h -t 1.8352 -s 0 -d 2 -p tcp -e 1040 -c 0 -i 8 -a 0 -x {0.0 3.0 -1 ------- null}
- -t 1.84352 -s 0 -d 2 -p tcp -e 1040 -c 0 -i 9 -a 0 -x {0.0 3.0 6 ------- null}
h -t 1.84352 -s 0 -d 2 -p tcp -e 1040 -c 0 -i 9 -a 0 -x {0.0 3.0 -1 ------- null}
r -t 1.92688 -s 0 -d 2 -p tcp -e 1040 -c 0 -i 6 -a 0 -x {0.0 3.0 3 ------- null}
+ -t 1.92688 -s 2 -d 3 -p tcp -e 1040 -c 0 -i 6 -a 0 -x {0.0 3.0 3 ------- null}
- -t 1.92688 -s 2 -d 3 -p tcp -e 1040 -c 0 -i 6 -a 0 -x {0.0 3.0 3 ------- null}
h -t 1.92688 -s 2 -d 3 -p tcp -e 1040 -c 0 -i 6 -a 0 -x {0.0 3.0 -1 ------- null}
r -t 1.9352 -s 0 -d 2 -p tcp -e 1040 -c 0 -i 7 -a 0 -x {0.0 3.0 4 ------- null}
+ -t 1.9352 -s 2 -d 3 -p tcp -e 1040 -c 0 -i 7 -a 0 -x {0.0 3.0 4 ------- null}
- -t 1.9352 -s 2 -d 3 -p tcp -e 1040 -c 0 -i 7 -a 0 -x {0.0 3.0 4 ------- null}
h -t 1.9352 -s 2 -d 3 -p tcp -e 1040 -c 0 -i 7 -a 0 -x {0.0 3.0 -1 ------- null}
r -t 1.94352 -s 0 -d 2 -p tcp -e 1040 -c 0 -i 8 -a 0 -x {0.0 3.0 5 ------- null}
+ -t 1.94352 -s 2 -d 3 -p tcp -e 1040 -c 0 -i 8 -a 0 -x {0.0 3.0 5 ------- null}
- -t 1.94352 -s 2 -d 3 -p tcp -e 1040 -c 0 -i 8 -a 0 -x {0.0 3.0 5 ------- null}
h -t 1.94352 -s 2 -d 3 -p tcp -e 1040 -c 0 -i 8 -a 0 -x {0.0 3.0 -1 ------- null}
r -t 1.95184 -s 0 -d 2 -p tcp -e 1040 -c 0 -i 9 -a 0 -x {0.0 3.0 6 ------- null}
+ -t 1.95184 -s 2 -d 3 -p tcp -e 1040 -c 0 -i 9 -a 0 -x {0.0 3.0 6 ------- null}
- -t 1.95184 -s 2 -d 3 -p tcp -e 1040 -c 0 -i 9 -a 0 -x {0.0 3.0 6 ------- null}
h -t 1.95184 -s 2 -d 3 -p tcp -e 1040 -c 0 -i 9 -a 0 -x {0.0 3.0 -1 ------- null}
r -t 2.0352 -s 2 -d 3 -p tcp -e 1040 -c 0 -i 6 -a 0 -x {0.0 3.0 3 ------- null}
+ -t 2.0352 -s 3 -d 2 -p ack -e 40 -c 0 -i 10 -a 0 -x {3.0 0.0 3 ------- null}
- -t 2.0352 -s 3 -d 2 -p ack -e 40 -c 0 -i 10 -a 0 -x {3.0 0.0 3 ------- null}
h -t 2.0352 -s 3 -d 2 -p ack -e 40 -c 0 -i 10 -a 0 -x {3.0 0.0 -1 ------- null}
r -t 2.04352 -s 2 -d 3 -p tcp -e 1040 -c 0 -i 7 -a 0 -x {0.0 3.0 4 ------- null}
+ -t 2.04352 -s 3 -d 2 -p ack -e 40 -c 0 -i 11 -a 0 -x {3.0 0.0 4 ------- null}
- -t 2.04352 -s 3 -d 2 -p ack -e 40 -c 0 -i 11 -a 0 -x {3.0 0.0 4 ------- null}
h -t 2.04352 -s 3 -d 2 -p ack -e 40 -c 0 -i 11 -a 0 -x {3.0 0.0 -1 ------- null}
r -t 2.05184 -s 2 -d 3 -p tcp -e 1040 -c 0 -i 8 -a 0 -x {0.0 3.0 5 ------- null}
+ -t 2.05184 -s 3 -d 2 -p ack -e 40 -c 0 -i 12 -a 0 -x {3.0 0.0 5 ------- null}
- -t 2.05184 -s 3 -d 2 -p ack -e 40 -c 0 -i 12 -a 0 -x {3.0 0.0 5 ------- null}
h -t 2.05184 -s 3 -d 2 -p ack -e 40 -c 0 -i 12 -a 0 -x {3.0 0.0 -1 ------- null}
r -t 2.06016 -s 2 -d 3 -p tcp -e 1040 -c 0 -i 9 -a 0 -x {0.0 3.0 6 ------- null}
+ -t 2.06016 -s 3 -d 2 -p ack -e 40 -c 0 -i 13 -a 0 -x {3.0 0.0 6 ------- null}
- -t 2.06016 -s 3 -d 2 -p ack -e 40 -c 0 -i 13 -a 0 -x {3.0 0.0 6 ------- null}
h -t 2.06016 -s 3 -d 2 -p ack -e 40 -c 0 -i 13 -a 0 -x {3.0 0.0 -1 ------- null}
+ -t 2.10409158662114 -s 1 -d 2 -p tcp -e 40 -c 0 -i 14 -a 0 -x {1.0 3.1 0 ------- null}
- -t 2.10409158662114 -s 1 -d 2 -p tcp -e 40 -c 0 -i 14 -a 0 -x {1.0 3.1 0 ------- null}
h -t 2.10409158662114 -s 1 -d 2 -p tcp -e 40 -c 0 -i 14 -a 0 -x {1.0 3.1 -1 ------- null}
r -t 2.13552 -s 3 -d 2 -p ack -e 40 -c 0 -i 10 -a 0 -x {3.0 0.0 3 ------- null}
+ -t 2.13552 -s 2 -d 0 -p ack -e 40 -c 0 -i 10 -a 0 -x {3.0 0.0 3 ------- null}
- -t 2.13552 -s 2 -d 0 -p ack -e 40 -c 0 -i 10 -a 0 -x {3.0 0.0 3 ------- null}
h -t 2.13552 -s 2 -d 0 -p ack -e 40 -c 0 -i 10 -a 0 -x {3.0 0.0 -1 ------- null}
r -t 2.14384 -s 3 -d 2 -p ack -e 40 -c 0 -i 11 -a 0 -x {3.0 0.0 4 ------- null}
+ -t 2.14384 -s 2 -d 0 -p ack -e 40 -c 0 -i 11 -a 0 -x {3.0 0.0 4 ------- null}
- -t 2.14384 -s 2 -d 0 -p ack -e 40 -c 0 -i 11 -a 0 -x {3.0 0.0 4 ------- null}
h -t 2.14384 -s 2 -d 0 -p ack -e 40 -c 0 -i 11 -a 0 -x {3.0 0.0 -1 ------- null}
r -t 2.15216 -s 3 -d 2 -p ack -e 40 -c 0 -i 12 -a 0 -x {3.0 0.0 5 ------- null}
+ -t 2.15216 -s 2 -d 0 -p ack -e 40 -c 0 -i 12 -a 0 -x {3.0 0.0 5 ------- null}
- -t 2.15216 -s 2 -d 0 -p ack -e 40 -c 0 -i 12 -a 0 -x {3.0 0.0 5 ------- null}
h -t 2.15216 -s 2 -d 0 -p ack -e 40 -c 0 -i 12 -a 0 -x {3.0 0.0 -1 ------- null}
r -t 2.16048 -s 3 -d 2 -p ack -e 40 -c 0 -i 13 -a 0 -x {3.0 0.0 6 ------- null}
+ -t 2.16048 -s 2 -d 0 -p ack -e 40 -c 0 -i 13 -a 0 -x {3.0 0.0 6 ------- null}
- -t 2.16048 -s 2 -d 0 -p ack -e 40 -c 0 -i 13 -a 0 -x {3.0 0.0 6 ------- null}
h -t 2.16048 -s 2 -d 0 -p ack -e 40 -c 0 -i 13 -a 0 -x {3.0 0.0 -1 ------- null}
r -t 2.20441158662114 -s 1 -d 2 -p tcp -e 40 -c 0 -i 14 -a 0 -x {1.0 3.1 0 ------- null}
+ -t 2.20441158662114 -s 2 -d 3 -p tcp -e 40 -c 0 -i 14 -a 0 -x {1.0 3.1 0 ------- null}
- -t 2.20441158662114 -s 2 -d 3 -p tcp -e 40 -c 0 -i 14 -a 0 -x {1.0 3.1 0 ------- null}
h -t 2.20441158662114 -s 2 -d 3 -p tcp -e 40 -c 0 -i 14 -a 0 -x {1.0 3.1 -1 ------- null}
r -t 2.23584 -s 2 -d 0 -p ack -e 40 -c 0 -i 10 -a 0 -x {3.0 0.0 3 ------- null}
r -t 2.24416 -s 2 -d 0 -p ack -e 40 -c 0 -i 11 -a 0 -x {3.0 0.0 4 ------- null}
r -t 2.25248 -s 2 -d 0 -p ack -e 40 -c 0 -i 12 -a 0 -x {3.0 0.0 5 ------- null}
r -t 2.2608 -s 2 -d 0 -p ack -e 40 -c 0 -i 13 -a 0 -x {3.0 0.0 6 ------- null}
r -t 2.30473158662114 -s 2 -d 3 -p tcp -e 40 -c 0 -i 14 -a 0 -x {1.0 3.1 0 ------- null}
+ -t 2.30473158662114 -s 3 -d 2 -p ack -e 40 -c 0 -i 15 -a 0 -x {3.1 1.0 0 ------- null}
- -t 2.30473158662114 -s 3 -d 2 -p ack -e 40 -c 0 -i 15 -a 0 -x {3.1 1.0 0 ------- null}
h -t 2.30473158662114 -s 3 -d 2 -p ack -e 40 -c 0 -i 15 -a 0 -x {3.1 1.0 -1 ------- null}
r -t 2.40505158662114 -s 3 -d 2 -p ack -e 40 -c 0 -i 15 -a 0 -x {3.1 1.0 0 ------- null}
+ -t 2.40505158662114 -s 2 -d 1 -p ack -e 40 -c 0 -i 15 -a 0 -x {3.1 1.0 0 ------- null}
- -t 2.40505158662114 -s 2 -d 1 -p ack -e 40 -c 0 -i 15 -a 0 -x {3.1 1.0 0 ------- null}
h -t 2.40505158662114 -s 2 -d 1 -p ack -e 40 -c 0 -i 15 -a 0 -x {3.1 1.0 -1 ------- null}
r -t 2.50537158662114 -s 2 -d 1 -p ack -e 40 -c 0 -i 15 -a 0 -x {3.1 1.0 0 ------- null}
+ -t 2.50537158662114 -s 1 -d 2 -p tcp -e 1040 -c 0 -i 16 -a 0 -x {1.0 3.1 1 ------- null}
- -t 2.50537158662114 -s 1 -d 2 -p tcp -e 1040 -c 0 -i 16 -a 0 -x {1.0 3.1 1 ------- null}
h -t 2.50537158662114 -s 1 -d 2 -p tcp -e 1040 -c 0 -i 16 -a 0 -x {1.0 3.1 -1 ------- null}
+ -t 2.50537158662114 -s 1 -d 2 -p tcp -e 1040 -c 0 -i 17 -a 0 -x {1.0 3.1 2 ------- null}
- -t 2.51369158662114 -s 1 -d 2 -p tcp -e 1040 -c 0 -i 17 -a 0 -x {1.0 3.1 2 ------- null}
h -t 2.51369158662114 -s 1 -d 2 -p tcp -e 1040 -c 0 -i 17 -a 0 -x {1.0 3.1 -1 ------- null}
r -t 2.61369158662114 -s 1 -d 2 -p tcp -e 1040 -c 0 -i 16 -a 0 -x {1.0 3.1 1 ------- null}
+ -t 2.61369158662114 -s 2 -d 3 -p tcp -e 1040 -c 0 -i 16 -a 0 -x {1.0 3.1 1 ------- null}
- -t 2.61369158662114 -s 2 -d 3 -p tcp -e 1040 -c 0 -i 16 -a 0 -x {1.0 3.1 1 ------- null}
h -t 2.61369158662114 -s 2 -d 3 -p tcp -e 1040 -c 0 -i 16 -a 0 -x {1.0 3.1 -1 ------- null}
r -t 2.62201158662114 -s 1 -d 2 -p tcp -e 1040 -c 0 -i 17 -a 0 -x {1.0 3.1 2 ------- null}
+ -t 2.62201158662114 -s 2 -d 3 -p tcp -e 1040 -c 0 -i 17 -a 0 -x {1.0 3.1 2 ------- null}
- -t 2.62201158662114 -s 2 -d 3 -p tcp -e 1040 -c 0 -i 17 -a 0 -x {1.0 3.1 2 ------- null}
h -t 2.62201158662114 -s 2 -d 3 -p tcp -e 1040 -c 0 -i 17 -a 0 -x {1.0 3.1 -1 ------- null}
r -t 2.72201158662114 -s 2 -d 3 -p tcp -e 1040 -c 0 -i 16 -a 0 -x {1.0 3.1 1 ------- null}
+ -t 2.72201158662114 -s 3 -d 2 -p ack -e 40 -c 0 -i 18 -a 0 -x {3.1 1.0 1 ------- null}
- -t 2.72201158662114 -s 3 -d 2 -p ack -e 40 -c 0 -i 18 -a 0 -x {3.1 1.0 1 ------- null}
h -t 2.72201158662114 -s 3 -d 2 -p ack -e 40 -c 0 -i 18 -a 0 -x {3.1 1.0 -1 ------- null}
r -t 2.73033158662114 -s 2 -d 3 -p tcp -e 1040 -c 0 -i 17 -a 0 -x {1.0 3.1 2 ------- null}
+ -t 2.73033158662114 -s 3 -d 2 -p ack -e 40 -c 0 -i 19 -a 0 -x {3.1 1.0 2 ------- null}
- -t 2.73033158662114 -s 3 -d 2 -p ack -e 40 -c 0 -i 19 -a 0 -x {3.1 1.0 2 ------- null}
h -t 2.73033158662114 -s 3 -d 2 -p ack -e 40 -c 0 -i 19 -a 0 -x {3.1 1.0 -1 ------- null}
r -t 2.82233158662114 -s 3 -d 2 -p ack -e 40 -c 0 -i 18 -a 0 -x {3.1 1.0 1 ------- null}
+ -t 2.82233158662114 -s 2 -d 1 -p ack -e 40 -c 0 -i 18 -a 0 -x {3.1 1.0 1 ------- null}
- -t 2.82233158662114 -s 2 -d 1 -p ack -e 40 -c 0 -i 18 -a 0 -x {3.1 1.0 1 ------- null}
h -t 2.82233158662114 -s 2 -d 1 -p ack -e 40 -c 0 -i 18 -a 0 -x {3.1 1.0 -1 ------- null}
r -t 2.83065158662114 -s 3 -d 2 -p ack -e 40 -c 0 -i 19 -a 0 -x {3.1 1.0 2 ------- null}
+ -t 2.83065158662114 -s 2 -d 1 -p ack -e 40 -c 0 -i 19 -a 0 -x {3.1 1.0 2 ------- null}
- -t 2.83065158662114 -s 2 -d 1 -p ack -e 40 -c 0 -i 19 -a 0 -x {3.1 1.0 2 ------- null}
h -t 2.83065158662114 -s 2 -d 1 -p ack -e 40 -c 0 -i 19 -a 0 -x {3.1 1.0 -1 ------- null}
r -t 2.92265158662114 -s 2 -d 1 -p ack -e 40 -c 0 -i 18 -a 0 -x {3.1 1.0 1 ------- null}
+ -t 2.92265158662114 -s 1 -d 2 -p tcp -e 1040 -c 0 -i 20 -a 0 -x {1.0 3.1 3 ------- null}
- -t 2.92265158662114 -s 1 -d 2 -p tcp -e 1040 -c 0 -i 20 -a 0 -x {1.0 3.1 3 ------- null}
h -t 2.92265158662114 -s 1 -d 2 -p tcp -e 1040 -c 0 -i 20 -a 0 -x {1.0 3.1 -1 ------- null}
+ -t 2.92265158662114 -s 1 -d 2 -p tcp -e 1040 -c 0 -i 21 -a 0 -x {1.0 3.1 4 ------- null}
r -t 2.93097158662114 -s 2 -d 1 -p ack -e 40 -c 0 -i 19 -a 0 -x {3.1 1.0 2 ------- null}
+ -t 2.93097158662114 -s 1 -d 2 -p tcp -e 1040 -c 0 -i 22 -a 0 -x {1.0 3.1 5 ------- null}
+ -t 2.93097158662114 -s 1 -d 2 -p tcp -e 1040 -c 0 -i 23 -a 0 -x {1.0 3.1 6 ------- null}
- -t 2.93097158662114 -s 1 -d 2 -p tcp -e 1040 -c 0 -i 21 -a 0 -x {1.0 3.1 4 ------- null}
h -t 2.93097158662114 -s 1 -d 2 -p tcp -e 1040 -c 0 -i 21 -a 0 -x {1.0 3.1 -1 ------- null}
- -t 2.93929158662114 -s 1 -d 2 -p tcp -e 1040 -c 0 -i 22 -a 0 -x {1.0 3.1 5 ------- null}
h -t 2.93929158662114 -s 1 -d 2 -p tcp -e 1040 -c 0 -i 22 -a 0 -x {1.0 3.1 -1 ------- null}
- -t 2.94761158662114 -s 1 -d 2 -p tcp -e 1040 -c 0 -i 23 -a 0 -x {1.0 3.1 6 ------- null}
h -t 2.94761158662114 -s 1 -d 2 -p tcp -e 1040 -c 0 -i 23 -a 0 -x {1.0 3.1 -1 ------- null}
r -t 3.03097158662114 -s 1 -d 2 -p tcp -e 1040 -c 0 -i 20 -a 0 -x {1.0 3.1 3 ------- null}
+ -t 3.03097158662114 -s 2 -d 3 -p tcp -e 1040 -c 0 -i 20 -a 0 -x {1.0 3.1 3 ------- null}
- -t 3.03097158662114 -s 2 -d 3 -p tcp -e 1040 -c 0 -i 20 -a 0 -x {1.0 3.1 3 ------- null}
h -t 3.03097158662114 -s 2 -d 3 -p tcp -e 1040 -c 0 -i 20 -a 0 -x {1.0 3.1 -1 ------- null}
r -t 3.03929158662114 -s 1 -d 2 -p tcp -e 1040 -c 0 -i 21 -a 0 -x {1.0 3.1 4 ------- null}
+ -t 3.03929158662114 -s 2 -d 3 -p tcp -e 1040 -c 0 -i 21 -a 0 -x {1.0 3.1 4 ------- null}
- -t 3.03929158662114 -s 2 -d 3 -p tcp -e 1040 -c 0 -i 21 -a 0 -x {1.0 3.1 4 ------- null}
h -t 3.03929158662114 -s 2 -d 3 -p tcp -e 1040 -c 0 -i 21 -a 0 -x {1.0 3.1 -1 ------- null}
r -t 3.04761158662114 -s 1 -d 2 -p tcp -e 1040 -c 0 -i 22 -a 0 -x {1.0 3.1 5 ------- null}
+ -t 3.04761158662114 -s 2 -d 3 -p tcp -e 1040 -c 0 -i 22 -a 0 -x {1.0 3.1 5 ------- null}
- -t 3.04761158662114 -s 2 -d 3 -p tcp -e 1040 -c 0 -i 22 -a 0 -x {1.0 3.1 5 ------- null}
h -t 3.04761158662114 -s 2 -d 3 -p tcp -e 1040 -c 0 -i 22 -a 0 -x {1.0 3.1 -1 ------- null}
r -t 3.05593158662114 -s 1 -d 2 -p tcp -e 1040 -c 0 -i 23 -a 0 -x {1.0 3.1 6 ------- null}
+ -t 3.05593158662114 -s 2 -d 3 -p tcp -e 1040 -c 0 -i 23 -a 0 -x {1.0 3.1 6 ------- null}
- -t 3.05593158662114 -s 2 -d 3 -p tcp -e 1040 -c 0 -i 23 -a 0 -x {1.0 3.1 6 ------- null}
h -t 3.05593158662114 -s 2 -d 3 -p tcp -e 1040 -c 0 -i 23 -a 0 -x {1.0 3.1 -1 ------- null}
r -t 3.13929158662114 -s 2 -d 3 -p tcp -e 1040 -c 0 -i 20 -a 0 -x {1.0 3.1 3 ------- null}
+ -t 3.13929158662114 -s 3 -d 2 -p ack -e 40 -c 0 -i 24 -a 0 -x {3.1 1.0 3 ------- null}
- -t 3.13929158662114 -s 3 -d 2 -p ack -e 40 -c 0 -i 24 -a 0 -x {3.1 1.0 3 ------- null}
h -t 3.13929158662114 -s 3 -d 2 -p ack -e 40 -c 0 -i 24 -a 0 -x {3.1 1.0 -1 ------- null}
r -t 3.14761158662114 -s 2 -d 3 -p tcp -e 1040 -c 0 -i 21 -a 0 -x {1.0 3.1 4 ------- null}
+ -t 3.14761158662114 -s 3 -d 2 -p ack -e 40 -c 0 -i 25 -a 0 -x {3.1 1.0 4 ------- null}
- -t 3.14761158662114 -s 3 -d 2 -p ack -e 40 -c 0 -i 25 -a 0 -x {3.1 1.0 4 ------- null}
h -t 3.14761158662114 -s 3 -d 2 -p ack -e 40 -c 0 -i 25 -a 0 -x {3.1 1.0 -1 ------- null}
r -t 3.15593158662114 -s 2 -d 3 -p tcp -e 1040 -c 0 -i 22 -a 0 -x {1.0 3.1 5 ------- null}
+ -t 3.15593158662114 -s 3 -d 2 -p ack -e 40 -c 0 -i 26 -a 0 -x {3.1 1.0 5 ------- null}
- -t 3.15593158662114 -s 3 -d 2 -p ack -e 40 -c 0 -i 26 -a 0 -x {3.1 1.0 5 ------- null}
h -t 3.15593158662114 -s 3 -d 2 -p ack -e 40 -c 0 -i 26 -a 0 -x {3.1 1.0 -1 ------- null}
r -t 3.16425158662114 -s 2 -d 3 -p tcp -e 1040 -c 0 -i 23 -a 0 -x {1.0 3.1 6 ------- null}
+ -t 3.16425158662114 -s 3 -d 2 -p ack -e 40 -c 0 -i 27 -a 0 -x {3.1 1.0 6 ------- null}
- -t 3.16425158662114 -s 3 -d 2 -p ack -e 40 -c 0 -i 27 -a 0 -x {3.1 1.0 6 ------- null}
h -t 3.16425158662114 -s 3 -d 2 -p ack -e 40 -c 0 -i 27 -a 0 -x {3.1 1.0 -1 ------- null}
r -t 3.23961158662114 -s 3 -d 2 -p ack -e 40 -c 0 -i 24 -a 0 -x {3.1 1.0 3 ------- null}
+ -t 3.23961158662114 -s 2 -d 1 -p ack -e 40 -c 0 -i 24 -a 0 -x {3.1 1.0 3 ------- null}
- -t 3.23961158662114 -s 2 -d 1 -p ack -e 40 -c 0 -i 24 -a 0 -x {3.1 1.0 3 ------- null}
h -t 3.23961158662114 -s 2 -d 1 -p ack -e 40 -c 0 -i 24 -a 0 -x {3.1 1.0 -1 ------- null}
r -t 3.24793158662114 -s 3 -d 2 -p ack -e 40 -c 0 -i 25 -a 0 -x {3.1 1.0 4 ------- null}
+ -t 3.24793158662114 -s 2 -d 1 -p ack -e 40 -c 0 -i 25 -a 0 -x {3.1 1.0 4 ------- null}
- -t 3.24793158662114 -s 2 -d 1 -p ack -e 40 -c 0 -i 25 -a 0 -x {3.1 1.0 4 ------- null}
h -t 3.24793158662114 -s 2 -d 1 -p ack -e 40 -c 0 -i 25 -a 0 -x {3.1 1.0 -1 ------- null}
r -t 3.25625158662114 -s 3 -d 2 -p ack -e 40 -c 0 -i 26 -a 0 -x {3.1 1.0 5 ------- null}
+ -t 3.25625158662114 -s 2 -d 1 -p ack -e 40 -c 0 -i 26 -a 0 -x {3.1 1.0 5 ------- null}
- -t 3.25625158662114 -s 2 -d 1 -p ack -e 40 -c 0 -i 26 -a 0 -x {3.1 1.0 5 ------- null}
h -t 3.25625158662114 -s 2 -d 1 -p ack -e 40 -c 0 -i 26 -a 0 -x {3.1 1.0 -1 ------- null}
r -t 3.26457158662114 -s 3 -d 2 -p ack -e 40 -c 0 -i 27 -a 0 -x {3.1 1.0 6 ------- null}
+ -t 3.26457158662114 -s 2 -d 1 -p ack -e 40 -c 0 -i 27 -a 0 -x {3.1 1.0 6 ------- null}
- -t 3.26457158662114 -s 2 -d 1 -p ack -e 40 -c 0 -i 27 -a 0 -x {3.1 1.0 6 ------- null}
h -t 3.26457158662114 -s 2 -d 1 -p ack -e 40 -c 0 -i 27 -a 0 -x {3.1 1.0 -1 ------- null}
r -t 3.33993158662114 -s 2 -d 1 -p ack -e 40 -c 0 -i 24 -a 0 -x {3.1 1.0 3 ------- null}
+ -t 3.33993158662114 -s 1 -d 2 -p tcp -e 1040 -c 0 -i 28 -a 0 -x {1.0 3.1 7 ------- null}
- -t 3.33993158662114 -s 1 -d 2 -p tcp -e 1040 -c 0 -i 28 -a 0 -x {1.0 3.1 7 ------- null}
h -t 3.33993158662114 -s 1 -d 2 -p tcp -e 1040 -c 0 -i 28 -a 0 -x {1.0 3.1 -1 ------- null}
+ -t 3.33993158662114 -s 1 -d 2 -p tcp -e 1040 -c 0 -i 29 -a 0 -x {1.0 3.1 8 ------- null}
r -t 3.34825158662114 -s 2 -d 1 -p ack -e 40 -c 0 -i 25 -a 0 -x {3.1 1.0 4 ------- null}
+ -t 3.34825158662114 -s 1 -d 2 -p tcp -e 1040 -c 0 -i 30 -a 0 -x {1.0 3.1 9 ------- null}
+ -t 3.34825158662114 -s 1 -d 2 -p tcp -e 1040 -c 0 -i 31 -a 0 -x {1.0 3.1 10 ------- null}
- -t 3.34825158662114 -s 1 -d 2 -p tcp -e 1040 -c 0 -i 29 -a 0 -x {1.0 3.1 8 ------- null}
h -t 3.34825158662114 -s 1 -d 2 -p tcp -e 1040 -c 0 -i 29 -a 0 -x {1.0 3.1 -1 ------- null}
r -t 3.35657158662114 -s 2 -d 1 -p ack -e 40 -c 0 -i 26 -a 0 -x {3.1 1.0 5 ------- null}
+ -t 3.35657158662114 -s 1 -d 2 -p tcp -e 1040 -c 0 -i 32 -a 0 -x {1.0 3.1 11 ------- null}
+ -t 3.35657158662114 -s 1 -d 2 -p tcp -e 1040 -c 0 -i 33 -a 0 -x {1.0 3.1 12 ------- null}
- -t 3.35657158662114 -s 1 -d 2 -p tcp -e 1040 -c 0 -i 30 -a 0 -x {1.0 3.1 9 ------- null}
h -t 3.35657158662114 -s 1 -d 2 -p tcp -e 1040 -c 0 -i 30 -a 0 -x {1.0 3.1 -1 ------- null}
r -t 3.36489158662114 -s 2 -d 1 -p ack -e 40 -c 0 -i 27 -a 0 -x {3.1 1.0 6 ------- null}
+ -t 3.36489158662114 -s 1 -d 2 -p tcp -e 1040 -c 0 -i 34 -a 0 -x {1.0 3.1 13 ------- null}
+ -t 3.36489158662114 -s 1 -d 2 -p tcp -e 1040 -c 0 -i 35 -a 0 -x {1.0 3.1 14 ------- null}
- -t 3.36489158662114 -s 1 -d 2 -p tcp -e 1040 -c 0 -i 31 -a 0 -x {1.0 3.1 10 ------- null}
h -t 3.36489158662114 -s 1 -d 2 -p tcp -e 1040 -c 0 -i 31 -a 0 -x {1.0 3.1 -1 ------- null}
- -t 3.37321158662114 -s 1 -d 2 -p tcp -e 1040 -c 0 -i 32 -a 0 -x {1.0 3.1 11 ------- null}
h -t 3.37321158662114 -s 1 -d 2 -p tcp -e 1040 -c 0 -i 32 -a 0 -x {1.0 3.1 -1 ------- null}
- -t 3.38153158662114 -s 1 -d 2 -p tcp -e 1040 -c 0 -i 33 -a 0 -x {1.0 3.1 12 ------- null}
h -t 3.38153158662114 -s 1 -d 2 -p tcp -e 1040 -c 0 -i 33 -a 0 -x {1.0 3.1 -1 ------- null}
- -t 3.38985158662114 -s 1 -d 2 -p tcp -e 1040 -c 0 -i 34 -a 0 -x {1.0 3.1 13 ------- null}
h -t 3.38985158662114 -s 1 -d 2 -p tcp -e 1040 -c 0 -i 34 -a 0 -x {1.0 3.1 -1 ------- null}
- -t 3.39817158662114 -s 1 -d 2 -p tcp -e 1040 -c 0 -i 35 -a 0 -x {1.0 3.1 14 ------- null}
h -t 3.39817158662114 -s 1 -d 2 -p tcp -e 1040 -c 0 -i 35 -a 0 -x {1.0 3.1 -1 ------- null}
r -t 3.44825158662114 -s 1 -d 2 -p tcp -e 1040 -c 0 -i 28 -a 0 -x {1.0 3.1 7 ------- null}
+ -t 3.44825158662114 -s 2 -d 3 -p tcp -e 1040 -c 0 -i 28 -a 0 -x {1.0 3.1 7 ------- null}
- -t 3.44825158662114 -s 2 -d 3 -p tcp -e 1040 -c 0 -i 28 -a 0 -x {1.0 3.1 7 ------- null}
h -t 3.44825158662114 -s 2 -d 3 -p tcp -e 1040 -c 0 -i 28 -a 0 -x {1.0 3.1 -1 ------- null}
r -t 3.45657158662114 -s 1 -d 2 -p tcp -e 1040 -c 0 -i 29 -a 0 -x {1.0 3.1 8 ------- null}
+ -t 3.45657158662114 -s 2 -d 3 -p tcp -e 1040 -c 0 -i 29 -a 0 -x {1.0 3.1 8 ------- null}
- -t 3.45657158662114 -s 2 -d 3 -p tcp -e 1040 -c 0 -i 29 -a 0 -x {1.0 3.1 8 ------- null}
h -t 3.45657158662114 -s 2 -d 3 -p tcp -e 1040 -c 0 -i 29 -a 0 -x {1.0 3.1 -1 ------- null}
r -t 3.46489158662114 -s 1 -d 2 -p tcp -e 1040 -c 0 -i 30 -a 0 -x {1.0 3.1 9 ------- null}
+ -t 3.46489158662114 -s 2 -d 3 -p tcp -e 1040 -c 0 -i 30 -a 0 -x {1.0 3.1 9 ------- null}
- -t 3.46489158662114 -s 2 -d 3 -p tcp -e 1040 -c 0 -i 30 -a 0 -x {1.0 3.1 9 ------- null}
h -t 3.46489158662114 -s 2 -d 3 -p tcp -e 1040 -c 0 -i 30 -a 0 -x {1.0 3.1 -1 ------- null}
r -t 3.47321158662114 -s 1 -d 2 -p tcp -e 1040 -c 0 -i 31 -a 0 -x {1.0 3.1 10 ------- null}
+ -t 3.47321158662114 -s 2 -d 3 -p tcp -e 1040 -c 0 -i 31 -a 0 -x {1.0 3.1 10 ------- null}
- -t 3.47321158662114 -s 2 -d 3 -p tcp -e 1040 -c 0 -i 31 -a 0 -x {1.0 3.1 10 ------- null}
h -t 3.47321158662114 -s 2 -d 3 -p tcp -e 1040 -c 0 -i 31 -a 0 -x {1.0 3.1 -1 ------- null}
r -t 3.48153158662114 -s 1 -d 2 -p tcp -e 1040 -c 0 -i 32 -a 0 -x {1.0 3.1 11 ------- null}
+ -t 3.48153158662114 -s 2 -d 3 -p tcp -e 1040 -c 0 -i 32 -a 0 -x {1.0 3.1 11 ------- null}
- -t 3.48153158662114 -s 2 -d 3 -p tcp -e 1040 -c 0 -i 32 -a 0 -x {1.0 3.1 11 ------- null}
h -t 3.48153158662114 -s 2 -d 3 -p tcp -e 1040 -c 0 -i 32 -a 0 -x {1.0 3.1 -1 ------- null}
r -t 3.48985158662114 -s 1 -d 2 -p tcp -e 1040 -c 0 -i 33 -a 0 -x {1.0 3.1 12 ------- null}
+ -t 3.48985158662114 -s 2 -d 3 -p tcp -e 1040 -c 0 -i 33 -a 0 -x {1.0 3.1 12 ------- null}
- -t 3.48985158662114 -s 2 -d 3 -p tcp -e 1040 -c 0 -i 33 -a 0 -x {1.0 3.1 12 ------- null}
h -t 3.48985158662114 -s 2 -d 3 -p tcp -e 1040 -c 0 -i 33 -a 0 -x {1.0 3.1 -1 ------- null}
r -t 3.49817158662114 -s 1 -d 2 -p tcp -e 1040 -c 0 -i 34 -a 0 -x {1.0 3.1 13 ------- null}
+ -t 3.49817158662114 -s 2 -d 3 -p tcp -e 1040 -c 0 -i 34 -a 0 -x {1.0 3.1 13 ------- null}
- -t 3.49817158662114 -s 2 -d 3 -p tcp -e 1040 -c 0 -i 34 -a 0 -x {1.0 3.1 13 ------- null}
h -t 3.49817158662114 -s 2 -d 3 -p tcp -e 1040 -c 0 -i 34 -a 0 -x {1.0 3.1 -1 ------- null}
r -t 3.50649158662114 -s 1 -d 2 -p tcp -e 1040 -c 0 -i 35 -a 0 -x {1.0 3.1 14 ------- null}
+ -t 3.50649158662114 -s 2 -d 3 -p tcp -e 1040 -c 0 -i 35 -a 0 -x {1.0 3.1 14 ------- null}
- -t 3.50649158662114 -s 2 -d 3 -p tcp -e 1040 -c 0 -i 35 -a 0 -x {1.0 3.1 14 ------- null}
h -t 3.50649158662114 -s 2 -d 3 -p tcp -e 1040 -c 0 -i 35 -a 0 -x {1.0 3.1 -1 ------- null}
r -t 3.55657158662114 -s 2 -d 3 -p tcp -e 1040 -c 0 -i 28 -a 0 -x {1.0 3.1 7 ------- null}
+ -t 3.55657158662114 -s 3 -d 2 -p ack -e 40 -c 0 -i 36 -a 0 -x {3.1 1.0 7 ------- null}
- -t 3.55657158662114 -s 3 -d 2 -p ack -e 40 -c 0 -i 36 -a 0 -x {3.1 1.0 7 ------- null}
h -t 3.55657158662114 -s 3 -d 2 -p ack -e 40 -c 0 -i 36 -a 0 -x {3.1 1.0 -1 ------- null}
r -t 3.56489158662114 -s 2 -d 3 -p tcp -e 1040 -c 0 -i 29 -a 0 -x {1.0 3.1 8 ------- null}
+ -t 3.56489158662114 -s 3 -d 2 -p ack -e 40 -c 0 -i 37 -a 0 -x {3.1 1.0 8 ------- null}
- -t 3.56489158662114 -s 3 -d 2 -p ack -e 40 -c 0 -i 37 -a 0 -x {3.1 1.0 8 ------- null}
h -t 3.56489158662114 -s 3 -d 2 -p ack -e 40 -c 0 -i 37 -a 0 -x {3.1 1.0 -1 ------- null}
r -t 3.57321158662114 -s 2 -d 3 -p tcp -e 1040 -c 0 -i 30 -a 0 -x {1.0 3.1 9 ------- null}
+ -t 3.57321158662114 -s 3 -d 2 -p ack -e 40 -c 0 -i 38 -a 0 -x {3.1 1.0 9 ------- null}
- -t 3.57321158662114 -s 3 -d 2 -p ack -e 40 -c 0 -i 38 -a 0 -x {3.1 1.0 9 ------- null}
h -t 3.57321158662114 -s 3 -d 2 -p ack -e 40 -c 0 -i 38 -a 0 -x {3.1 1.0 -1 ------- null}
r -t 3.58153158662114 -s 2 -d 3 -p tcp -e 1040 -c 0 -i 31 -a 0 -x {1.0 3.1 10 ------- null}
+ -t 3.58153158662114 -s 3 -d 2 -p ack -e 40 -c 0 -i 39 -a 0 -x {3.1 1.0 10 ------- null}
- -t 3.58153158662114 -s 3 -d 2 -p ack -e 40 -c 0 -i 39 -a 0 -x {3.1 1.0 10 ------- null}
h -t 3.58153158662114 -s 3 -d 2 -p ack -e 40 -c 0 -i 39 -a 0 -x {3.1 1.0 -1 ------- null}
r -t 3.58985158662114 -s 2 -d 3 -p tcp -e 1040 -c 0 -i 32 -a 0 -x {1.0 3.1 11 ------- null}
+ -t 3.58985158662114 -s 3 -d 2 -p ack -e 40 -c 0 -i 40 -a 0 -x {3.1 1.0 11 ------- null}
- -t 3.58985158662114 -s 3 -d 2 -p ack -e 40 -c 0 -i 40 -a 0 -x {3.1 1.0 11 ------- null}
h -t 3.58985158662114 -s 3 -d 2 -p ack -e 40 -c 0 -i 40 -a 0 -x {3.1 1.0 -1 ------- null}
r -t 3.59817158662114 -s 2 -d 3 -p tcp -e 1040 -c 0 -i 33 -a 0 -x {1.0 3.1 12 ------- null}
+ -t 3.59817158662114 -s 3 -d 2 -p ack -e 40 -c 0 -i 41 -a 0 -x {3.1 1.0 12 ------- null}
- -t 3.59817158662114 -s 3 -d 2 -p ack -e 40 -c 0 -i 41 -a 0 -x {3.1 1.0 12 ------- null}
h -t 3.59817158662114 -s 3 -d 2 -p ack -e 40 -c 0 -i 41 -a 0 -x {3.1 1.0 -1 ------- null}
r -t 3.60649158662114 -s 2 -d 3 -p tcp -e 1040 -c 0 -i 34 -a 0 -x {1.0 3.1 13 ------- null}
+ -t 3.60649158662114 -s 3 -d 2 -p ack -e 40 -c 0 -i 42 -a 0 -x {3.1 1.0 13 ------- null}
- -t 3.60649158662114 -s 3 -d 2 -p ack -e 40 -c 0 -i 42 -a 0 -x {3.1 1.0 13 ------- null}
h -t 3.60649158662114 -s 3 -d 2 -p ack -e 40 -c 0 -i 42 -a 0 -x {3.1 1.0 -1 ------- null}
r -t 3.61481158662114 -s 2 -d 3 -p tcp -e 1040 -c 0 -i 35 -a 0 -x {1.0 3.1 14 ------- null}
+ -t 3.61481158662114 -s 3 -d 2 -p ack -e 40 -c 0 -i 43 -a 0 -x {3.1 1.0 14 ------- null}
- -t 3.61481158662114 -s 3 -d 2 -p ack -e 40 -c 0 -i 43 -a 0 -x {3.1 1.0 14 ------- null}
h -t 3.61481158662114 -s 3 -d 2 -p ack -e 40 -c 0 -i 43 -a 0 -x {3.1 1.0 -1 ------- null}
r -t 3.65689158662114 -s 3 -d 2 -p ack -e 40 -c 0 -i 36 -a 0 -x {3.1 1.0 7 ------- null}
+ -t 3.65689158662114 -s 2 -d 1 -p ack -e 40 -c 0 -i 36 -a 0 -x {3.1 1.0 7 ------- null}
- -t 3.65689158662114 -s 2 -d 1 -p ack -e 40 -c 0 -i 36 -a 0 -x {3.1 1.0 7 ------- null}
h -t 3.65689158662114 -s 2 -d 1 -p ack -e 40 -c 0 -i 36 -a 0 -x {3.1 1.0 -1 ------- null}
r -t 3.66521158662114 -s 3 -d 2 -p ack -e 40 -c 0 -i 37 -a 0 -x {3.1 1.0 8 ------- null}
+ -t 3.66521158662114 -s 2 -d 1 -p ack -e 40 -c 0 -i 37 -a 0 -x {3.1 1.0 8 ------- null}
- -t 3.66521158662114 -s 2 -d 1 -p ack -e 40 -c 0 -i 37 -a 0 -x {3.1 1.0 8 ------- null}
h -t 3.66521158662114 -s 2 -d 1 -p ack -e 40 -c 0 -i 37 -a 0 -x {3.1 1.0 -1 ------- null}
r -t 3.67353158662114 -s 3 -d 2 -p ack -e 40 -c 0 -i 38 -a 0 -x {3.1 1.0 9 ------- null}
+ -t 3.67353158662114 -s 2 -d 1 -p ack -e 40 -c 0 -i 38 -a 0 -x {3.1 1.0 9 ------- null}
- -t 3.67353158662114 -s 2 -d 1 -p ack -e 40 -c 0 -i 38 -a 0 -x {3.1 1.0 9 ------- null}
h -t 3.67353158662114 -s 2 -d 1 -p ack -e 40 -c 0 -i 38 -a 0 -x {3.1 1.0 -1 ------- null}
r -t 3.68185158662114 -s 3 -d 2 -p ack -e 40 -c 0 -i 39 -a 0 -x {3.1 1.0 10 ------- null}
+ -t 3.68185158662114 -s 2 -d 1 -p ack -e 40 -c 0 -i 39 -a 0 -x {3.1 1.0 10 ------- null}
- -t 3.68185158662114 -s 2 -d 1 -p ack -e 40 -c 0 -i 39 -a 0 -x {3.1 1.0 10 ------- null}
h -t 3.68185158662114 -s 2 -d 1 -p ack -e 40 -c 0 -i 39 -a 0 -x {3.1 1.0 -1 ------- null}
r -t 3.69017158662114 -s 3 -d 2 -p ack -e 40 -c 0 -i 40 -a 0 -x {3.1 1.0 11 ------- null}
+ -t 3.69017158662114 -s 2 -d 1 -p ack -e 40 -c 0 -i 40 -a 0 -x {3.1 1.0 11 ------- null}
- -t 3.69017158662114 -s 2 -d 1 -p ack -e 40 -c 0 -i 40 -a 0 -x {3.1 1.0 11 ------- null}
h -t 3.69017158662114 -s 2 -d 1 -p ack -e 40 -c 0 -i 40 -a 0 -x {3.1 1.0 -1 ------- null}
r -t 3.69849158662114 -s 3 -d 2 -p ack -e 40 -c 0 -i 41 -a 0 -x {3.1 1.0 12 ------- null}
+ -t 3.69849158662114 -s 2 -d 1 -p ack -e 40 -c 0 -i 41 -a 0 -x {3.1 1.0 12 ------- null}
- -t 3.69849158662114 -s 2 -d 1 -p ack -e 40 -c 0 -i 41 -a 0 -x {3.1 1.0 12 ------- null}
h -t 3.69849158662114 -s 2 -d 1 -p ack -e 40 -c 0 -i 41 -a 0 -x {3.1 1.0 -1 ------- null}
r -t 3.70681158662114 -s 3 -d 2 -p ack -e 40 -c 0 -i 42 -a 0 -x {3.1 1.0 13 ------- null}
+ -t 3.70681158662114 -s 2 -d 1 -p ack -e 40 -c 0 -i 42 -a 0 -x {3.1 1.0 13 ------- null}