+ 1 0 2 tcp 40 ------- 0 0.0 3.0 0 0
- 1 0 2 tcp 40 ------- 0 0.0 3.0 0 0
r 1.10032 0 2 tcp 40 ------- 0 0.0 3.0 0 0
+ 1.10032 2 3 tcp 40 ------- 0 0.0 3.0 0 0
- 1.10032 2 3 tcp 40 ------- 0 0.0 3.0 0 0
r 1.20064 2 3 tcp 40 ------- 0 0.0 3.0 0 0
+ 1.20064 3 2 ack 40 ------- 0 3.0 0.0 0 1
- 1.20064 3 2 ack 40 ------- 0 3.0 0.0 0 1
r 1.30096 3 2 ack 40 ------- 0 3.0 0.0 0 1
+ 1.30096 2 0 ack 40 ------- 0 3.0 0.0 0 1
- 1.30096 2 0 ack 40 ------- 0 3.0 0.0 0 1
r 1.40128 2 0 ack 40 ------- 0 3.0 0.0 0 1
+ 1.40128 0 2 tcp 1040 ------- 0 0.0 3.0 1 2
- 1.40128 0 2 tcp 1040 ------- 0 0.0 3.0 1 2
+ 1.40128 0 2 tcp 1040 ------- 0 0.0 3.0 2 3
- 1.4096 0 2 tcp 1040 ------- 0 0.0 3.0 2 3
r 1.5096 0 2 tcp 1040 ------- 0 0.0 3.0 1 2
+ 1.5096 2 3 tcp 1040 ------- 0 0.0 3.0 1 2
- 1.5096 2 3 tcp 1040 ------- 0 0.0 3.0 1 2
r 1.51792 0 2 tcp 1040 ------- 0 0.0 3.0 2 3
+ 1.51792 2 3 tcp 1040 ------- 0 0.0 3.0 2 3
- 1.51792 2 3 tcp 1040 ------- 0 0.0 3.0 2 3
r 1.61792 2 3 tcp 1040 ------- 0 0.0 3.0 1 2
+ 1.61792 3 2 ack 40 ------- 0 3.0 0.0 1 4
- 1.61792 3 2 ack 40 ------- 0 3.0 0.0 1 4
r 1.62624 2 3 tcp 1040 ------- 0 0.0 3.0 2 3
+ 1.62624 3 2 ack 40 ------- 0 3.0 0.0 2 5
- 1.62624 3 2 ack 40 ------- 0 3.0 0.0 2 5
r 1.71824 3 2 ack 40 ------- 0 3.0 0.0 1 4
+ 1.71824 2 0 ack 40 ------- 0 3.0 0.0 1 4
- 1.71824 2 0 ack 40 ------- 0 3.0 0.0 1 4
r 1.72656 3 2 ack 40 ------- 0 3.0 0.0 2 5
+ 1.72656 2 0 ack 40 ------- 0 3.0 0.0 2 5
- 1.72656 2 0 ack 40 ------- 0 3.0 0.0 2 5
r 1.81856 2 0 ack 40 ------- 0 3.0 0.0 1 4
+ 1.81856 0 2 tcp 1040 ------- 0 0.0 3.0 3 6
- 1.81856 0 2 tcp 1040 ------- 0 0.0 3.0 3 6
+ 1.81856 0 2 tcp 1040 ------- 0 0.0 3.0 4 7
r 1.82688 2 0 ack 40 ------- 0 3.0 0.0 2 5
+ 1.82688 0 2 tcp 1040 ------- 0 0.0 3.0 5 8
+ 1.82688 0 2 tcp 1040 ------- 0 0.0 3.0 6 9
- 1.82688 0 2 tcp 1040 ------- 0 0.0 3.0 4 7
- 1.8352 0 2 tcp 1040 ------- 0 0.0 3.0 5 8
- 1.84352 0 2 tcp 1040 ------- 0 0.0 3.0 6 9
r 1.92688 0 2 tcp 1040 ------- 0 0.0 3.0 3 6
+ 1.92688 2 3 tcp 1040 ------- 0 0.0 3.0 3 6
- 1.92688 2 3 tcp 1040 ------- 0 0.0 3.0 3 6
r 1.9352 0 2 tcp 1040 ------- 0 0.0 3.0 4 7
+ 1.9352 2 3 tcp 1040 ------- 0 0.0 3.0 4 7
- 1.9352 2 3 tcp 1040 ------- 0 0.0 3.0 4 7
r 1.94352 0 2 tcp 1040 ------- 0 0.0 3.0 5 8
+ 1.94352 2 3 tcp 1040 ------- 0 0.0 3.0 5 8
- 1.94352 2 3 tcp 1040 ------- 0 0.0 3.0 5 8
r 1.95184 0 2 tcp 1040 ------- 0 0.0 3.0 6 9
+ 1.95184 2 3 tcp 1040 ------- 0 0.0 3.0 6 9
- 1.95184 2 3 tcp 1040 ------- 0 0.0 3.0 6 9
r 2.0352 2 3 tcp 1040 ------- 0 0.0 3.0 3 6
+ 2.0352 3 2 ack 40 ------- 0 3.0 0.0 3 10
- 2.0352 3 2 ack 40 ------- 0 3.0 0.0 3 10
r 2.04352 2 3 tcp 1040 ------- 0 0.0 3.0 4 7
+ 2.04352 3 2 ack 40 ------- 0 3.0 0.0 4 11
- 2.04352 3 2 ack 40 ------- 0 3.0 0.0 4 11
r 2.05184 2 3 tcp 1040 ------- 0 0.0 3.0 5 8
+ 2.05184 3 2 ack 40 ------- 0 3.0 0.0 5 12
- 2.05184 3 2 ack 40 ------- 0 3.0 0.0 5 12
r 2.06016 2 3 tcp 1040 ------- 0 0.0 3.0 6 9
+ 2.06016 3 2 ack 40 ------- 0 3.0 0.0 6 13
- 2.06016 3 2 ack 40 ------- 0 3.0 0.0 6 13
+ 2.104092 1 2 tcp 40 ------- 0 1.0 3.1 0 14
- 2.104092 1 2 tcp 40 ------- 0 1.0 3.1 0 14
r 2.13552 3 2 ack 40 ------- 0 3.0 0.0 3 10
+ 2.13552 2 0 ack 40 ------- 0 3.0 0.0 3 10
- 2.13552 2 0 ack 40 ------- 0 3.0 0.0 3 10
r 2.14384 3 2 ack 40 ------- 0 3.0 0.0 4 11
+ 2.14384 2 0 ack 40 ------- 0 3.0 0.0 4 11
- 2.14384 2 0 ack 40 ------- 0 3.0 0.0 4 11
r 2.15216 3 2 ack 40 ------- 0 3.0 0.0 5 12
+ 2.15216 2 0 ack 40 ------- 0 3.0 0.0 5 12
- 2.15216 2 0 ack 40 ------- 0 3.0 0.0 5 12
r 2.16048 3 2 ack 40 ------- 0 3.0 0.0 6 13
+ 2.16048 2 0 ack 40 ------- 0 3.0 0.0 6 13
- 2.16048 2 0 ack 40 ------- 0 3.0 0.0 6 13
r 2.204412 1 2 tcp 40 ------- 0 1.0 3.1 0 14
+ 2.204412 2 3 tcp 40 ------- 0 1.0 3.1 0 14
- 2.204412 2 3 tcp 40 ------- 0 1.0 3.1 0 14
r 2.23584 2 0 ack 40 ------- 0 3.0 0.0 3 10
r 2.24416 2 0 ack 40 ------- 0 3.0 0.0 4 11
r 2.25248 2 0 ack 40 ------- 0 3.0 0.0 5 12
r 2.2608 2 0 ack 40 ------- 0 3.0 0.0 6 13
r 2.304732 2 3 tcp 40 ------- 0 1.0 3.1 0 14
+ 2.304732 3 2 ack 40 ------- 0 3.1 1.0 0 15
- 2.304732 3 2 ack 40 ------- 0 3.1 1.0 0 15
r 2.405052 3 2 ack 40 ------- 0 3.1 1.0 0 15
+ 2.405052 2 1 ack 40 ------- 0 3.1 1.0 0 15
- 2.405052 2 1 ack 40 ------- 0 3.1 1.0 0 15
r 2.505372 2 1 ack 40 ------- 0 3.1 1.0 0 15
+ 2.505372 1 2 tcp 1040 ------- 0 1.0 3.1 1 16
- 2.505372 1 2 tcp 1040 ------- 0 1.0 3.1 1 16
+ 2.505372 1 2 tcp 1040 ------- 0 1.0 3.1 2 17
- 2.513692 1 2 tcp 1040 ------- 0 1.0 3.1 2 17
r 2.613692 1 2 tcp 1040 ------- 0 1.0 3.1 1 16
+ 2.613692 2 3 tcp 1040 ------- 0 1.0 3.1 1 16
- 2.613692 2 3 tcp 1040 ------- 0 1.0 3.1 1 16
r 2.622012 1 2 tcp 1040 ------- 0 1.0 3.1 2 17
+ 2.622012 2 3 tcp 1040 ------- 0 1.0 3.1 2 17
- 2.622012 2 3 tcp 1040 ------- 0 1.0 3.1 2 17
r 2.722012 2 3 tcp 1040 ------- 0 1.0 3.1 1 16
+ 2.722012 3 2 ack 40 ------- 0 3.1 1.0 1 18
- 2.722012 3 2 ack 40 ------- 0 3.1 1.0 1 18
r 2.730332 2 3 tcp 1040 ------- 0 1.0 3.1 2 17
+ 2.730332 3 2 ack 40 ------- 0 3.1 1.0 2 19
- 2.730332 3 2 ack 40 ------- 0 3.1 1.0 2 19
r 2.822332 3 2 ack 40 ------- 0 3.1 1.0 1 18
+ 2.822332 2 1 ack 40 ------- 0 3.1 1.0 1 18
- 2.822332 2 1 ack 40 ------- 0 3.1 1.0 1 18
r 2.830652 3 2 ack 40 ------- 0 3.1 1.0 2 19
+ 2.830652 2 1 ack 40 ------- 0 3.1 1.0 2 19
- 2.830652 2 1 ack 40 ------- 0 3.1 1.0 2 19
r 2.922652 2 1 ack 40 ------- 0 3.1 1.0 1 18
+ 2.922652 1 2 tcp 1040 ------- 0 1.0 3.1 3 20
- 2.922652 1 2 tcp 1040 ------- 0 1.0 3.1 3 20
+ 2.922652 1 2 tcp 1040 ------- 0 1.0 3.1 4 21
r 2.930972 2 1 ack 40 ------- 0 3.1 1.0 2 19
+ 2.930972 1 2 tcp 1040 ------- 0 1.0 3.1 5 22
+ 2.930972 1 2 tcp 1040 ------- 0 1.0 3.1 6 23
- 2.930972 1 2 tcp 1040 ------- 0 1.0 3.1 4 21
- 2.939292 1 2 tcp 1040 ------- 0 1.0 3.1 5 22
- 2.947612 1 2 tcp 1040 ------- 0 1.0 3.1 6 23
r 3.030972 1 2 tcp 1040 ------- 0 1.0 3.1 3 20
+ 3.030972 2 3 tcp 1040 ------- 0 1.0 3.1 3 20
- 3.030972 2 3 tcp 1040 ------- 0 1.0 3.1 3 20
r 3.039292 1 2 tcp 1040 ------- 0 1.0 3.1 4 21
+ 3.039292 2 3 tcp 1040 ------- 0 1.0 3.1 4 21
- 3.039292 2 3 tcp 1040 ------- 0 1.0 3.1 4 21
r 3.047612 1 2 tcp 1040 ------- 0 1.0 3.1 5 22
+ 3.047612 2 3 tcp 1040 ------- 0 1.0 3.1 5 22
- 3.047612 2 3 tcp 1040 ------- 0 1.0 3.1 5 22
r 3.055932 1 2 tcp 1040 ------- 0 1.0 3.1 6 23
+ 3.055932 2 3 tcp 1040 ------- 0 1.0 3.1 6 23
- 3.055932 2 3 tcp 1040 ------- 0 1.0 3.1 6 23
r 3.139292 2 3 tcp 1040 ------- 0 1.0 3.1 3 20
+ 3.139292 3 2 ack 40 ------- 0 3.1 1.0 3 24
- 3.139292 3 2 ack 40 ------- 0 3.1 1.0 3 24
r 3.147612 2 3 tcp 1040 ------- 0 1.0 3.1 4 21
+ 3.147612 3 2 ack 40 ------- 0 3.1 1.0 4 25
- 3.147612 3 2 ack 40 ------- 0 3.1 1.0 4 25
r 3.155932 2 3 tcp 1040 ------- 0 1.0 3.1 5 22
+ 3.155932 3 2 ack 40 ------- 0 3.1 1.0 5 26
- 3.155932 3 2 ack 40 ------- 0 3.1 1.0 5 26
r 3.164252 2 3 tcp 1040 ------- 0 1.0 3.1 6 23
+ 3.164252 3 2 ack 40 ------- 0 3.1 1.0 6 27
- 3.164252 3 2 ack 40 ------- 0 3.1 1.0 6 27
r 3.239612 3 2 ack 40 ------- 0 3.1 1.0 3 24
+ 3.239612 2 1 ack 40 ------- 0 3.1 1.0 3 24
- 3.239612 2 1 ack 40 ------- 0 3.1 1.0 3 24
r 3.247932 3 2 ack 40 ------- 0 3.1 1.0 4 25
+ 3.247932 2 1 ack 40 ------- 0 3.1 1.0 4 25
- 3.247932 2 1 ack 40 ------- 0 3.1 1.0 4 25
r 3.256252 3 2 ack 40 ------- 0 3.1 1.0 5 26
+ 3.256252 2 1 ack 40 ------- 0 3.1 1.0 5 26
- 3.256252 2 1 ack 40 ------- 0 3.1 1.0 5 26
r 3.264572 3 2 ack 40 ------- 0 3.1 1.0 6 27
+ 3.264572 2 1 ack 40 ------- 0 3.1 1.0 6 27
- 3.264572 2 1 ack 40 ------- 0 3.1 1.0 6 27
r 3.339932 2 1 ack 40 ------- 0 3.1 1.0 3 24
+ 3.339932 1 2 tcp 1040 ------- 0 1.0 3.1 7 28
- 3.339932 1 2 tcp 1040 ------- 0 1.0 3.1 7 28
+ 3.339932 1 2 tcp 1040 ------- 0 1.0 3.1 8 29
r 3.348252 2 1 ack 40 ------- 0 3.1 1.0 4 25
+ 3.348252 1 2 tcp 1040 ------- 0 1.0 3.1 9 30
+ 3.348252 1 2 tcp 1040 ------- 0 1.0 3.1 10 31
- 3.348252 1 2 tcp 1040 ------- 0 1.0 3.1 8 29
r 3.356572 2 1 ack 40 ------- 0 3.1 1.0 5 26
+ 3.356572 1 2 tcp 1040 ------- 0 1.0 3.1 11 32
+ 3.356572 1 2 tcp 1040 ------- 0 1.0 3.1 12 33
- 3.356572 1 2 tcp 1040 ------- 0 1.0 3.1 9 30
r 3.364892 2 1 ack 40 ------- 0 3.1 1.0 6 27
+ 3.364892 1 2 tcp 1040 ------- 0 1.0 3.1 13 34
+ 3.364892 1 2 tcp 1040 ------- 0 1.0 3.1 14 35
- 3.364892 1 2 tcp 1040 ------- 0 1.0 3.1 10 31
- 3.373212 1 2 tcp 1040 ------- 0 1.0 3.1 11 32
- 3.381532 1 2 tcp 1040 ------- 0 1.0 3.1 12 33
- 3.389852 1 2 tcp 1040 ------- 0 1.0 3.1 13 34
- 3.398172 1 2 tcp 1040 ------- 0 1.0 3.1 14 35
r 3.448252 1 2 tcp 1040 ------- 0 1.0 3.1 7 28
+ 3.448252 2 3 tcp 1040 ------- 0 1.0 3.1 7 28
- 3.448252 2 3 tcp 1040 ------- 0 1.0 3.1 7 28
r 3.456572 1 2 tcp 1040 ------- 0 1.0 3.1 8 29
+ 3.456572 2 3 tcp 1040 ------- 0 1.0 3.1 8 29
- 3.456572 2 3 tcp 1040 ------- 0 1.0 3.1 8 29
r 3.464892 1 2 tcp 1040 ------- 0 1.0 3.1 9 30
+ 3.464892 2 3 tcp 1040 ------- 0 1.0 3.1 9 30
- 3.464892 2 3 tcp 1040 ------- 0 1.0 3.1 9 30
r 3.473212 1 2 tcp 1040 ------- 0 1.0 3.1 10 31
+ 3.473212 2 3 tcp 1040 ------- 0 1.0 3.1 10 31
- 3.473212 2 3 tcp 1040 ------- 0 1.0 3.1 10 31
r 3.481532 1 2 tcp 1040 ------- 0 1.0 3.1 11 32
+ 3.481532 2 3 tcp 1040 ------- 0 1.0 3.1 11 32
- 3.481532 2 3 tcp 1040 ------- 0 1.0 3.1 11 32
r 3.489852 1 2 tcp 1040 ------- 0 1.0 3.1 12 33
+ 3.489852 2 3 tcp 1040 ------- 0 1.0 3.1 12 33
- 3.489852 2 3 tcp 1040 ------- 0 1.0 3.1 12 33
r 3.498172 1 2 tcp 1040 ------- 0 1.0 3.1 13 34
+ 3.498172 2 3 tcp 1040 ------- 0 1.0 3.1 13 34
- 3.498172 2 3 tcp 1040 ------- 0 1.0 3.1 13 34
r 3.506492 1 2 tcp 1040 ------- 0 1.0 3.1 14 35
+ 3.506492 2 3 tcp 1040 ------- 0 1.0 3.1 14 35
- 3.506492 2 3 tcp 1040 ------- 0 1.0 3.1 14 35
r 3.556572 2 3 tcp 1040 ------- 0 1.0 3.1 7 28
+ 3.556572 3 2 ack 40 ------- 0 3.1 1.0 7 36
- 3.556572 3 2 ack 40 ------- 0 3.1 1.0 7 36
r 3.564892 2 3 tcp 1040 ------- 0 1.0 3.1 8 29
+ 3.564892 3 2 ack 40 ------- 0 3.1 1.0 8 37
- 3.564892 3 2 ack 40 ------- 0 3.1 1.0 8 37
r 3.573212 2 3 tcp 1040 ------- 0 1.0 3.1 9 30
+ 3.573212 3 2 ack 40 ------- 0 3.1 1.0 9 38
- 3.573212 3 2 ack 40 ------- 0 3.1 1.0 9 38
r 3.581532 2 3 tcp 1040 ------- 0 1.0 3.1 10 31
+ 3.581532 3 2 ack 40 ------- 0 3.1 1.0 10 39
- 3.581532 3 2 ack 40 ------- 0 3.1 1.0 10 39
r 3.589852 2 3 tcp 1040 ------- 0 1.0 3.1 11 32
+ 3.589852 3 2 ack 40 ------- 0 3.1 1.0 11 40
- 3.589852 3 2 ack 40 ------- 0 3.1 1.0 11 40
r 3.598172 2 3 tcp 1040 ------- 0 1.0 3.1 12 33
+ 3.598172 3 2 ack 40 ------- 0 3.1 1.0 12 41
- 3.598172 3 2 ack 40 ------- 0 3.1 1.0 12 41
r 3.606492 2 3 tcp 1040 ------- 0 1.0 3.1 13 34
+ 3.606492 3 2 ack 40 ------- 0 3.1 1.0 13 42
- 3.606492 3 2 ack 40 ------- 0 3.1 1.0 13 42
r 3.614812 2 3 tcp 1040 ------- 0 1.0 3.1 14 35
+ 3.614812 3 2 ack 40 ------- 0 3.1 1.0 14 43
- 3.614812 3 2 ack 40 ------- 0 3.1 1.0 14 43
r 3.656892 3 2 ack 40 ------- 0 3.1 1.0 7 36
+ 3.656892 2 1 ack 40 ------- 0 3.1 1.0 7 36
- 3.656892 2 1 ack 40 ------- 0 3.1 1.0 7 36
r 3.665212 3 2 ack 40 ------- 0 3.1 1.0 8 37
+ 3.665212 2 1 ack 40 ------- 0 3.1 1.0 8 37
- 3.665212 2 1 ack 40 ------- 0 3.1 1.0 8 37
r 3.673532 3 2 ack 40 ------- 0 3.1 1.0 9 38
+ 3.673532 2 1 ack 40 ------- 0 3.1 1.0 9 38
- 3.673532 2 1 ack 40 ------- 0 3.1 1.0 9 38
r 3.681852 3 2 ack 40 ------- 0 3.1 1.0 10 39
+ 3.681852 2 1 ack 40 ------- 0 3.1 1.0 10 39
- 3.681852 2 1 ack 40 ------- 0 3.1 1.0 10 39
r 3.690172 3 2 ack 40 ------- 0 3.1 1.0 11 40
+ 3.690172 2 1 ack 40 ------- 0 3.1 1.0 11 40
- 3.690172 2 1 ack 40 ------- 0 3.1 1.0 11 40
r 3.698492 3 2 ack 40 ------- 0 3.1 1.0 12 41
+ 3.698492 2 1 ack 40 ------- 0 3.1 1.0 12 41
- 3.698492 2 1 ack 40 ------- 0 3.1 1.0 12 41
r 3.706812 3 2 ack 40 ------- 0 3.1 1.0 13 42
+ 3.706812 2 1 ack 40 ------- 0 3.1 1.0 13 42
- 3.706812 2 1 ack 40 ------- 0 3.1 1.0 13 42
r 3.715132 3 2 ack 40 ------- 0 3.1 1.0 14 43
+ 3.715132 2 1 ack 40 ------- 0 3.1 1.0 14 43
- 3.715132 2 1 ack 40 ------- 0 3.1 1.0 14 43
r 3.757212 2 1 ack 40 ------- 0 3.1 1.0 7 36
+ 3.757212 1 2 tcp 1040 ------- 0 1.0 3.1 15 44
- 3.757212 1 2 tcp 1040 ------- 0 1.0 3.1 15 44
+ 3.757212 1 2 tcp 1040 ------- 0 1.0 3.1 16 45
r 3.765532 2 1 ack 40 ------- 0 3.1 1.0 8 37
+ 3.765532 1 2 tcp 1040 ------- 0 1.0 3.1 17 46
+ 3.765532 1 2 tcp 1040 ------- 0 1.0 3.1 18 47
- 3.765532 1 2 tcp 1040 ------- 0 1.0 3.1 16 45
r 3.773852 2 1 ack 40 ------- 0 3.1 1.0 9 38
+ 3.773852 1 2 tcp 1040 ------- 0 1.0 3.1 19 48
+ 3.773852 1 2 tcp 1040 ------- 0 1.0 3.1 20 49
- 3.773852 1 2 tcp 1040 ------- 0 1.0 3.1 17 46
r 3.782172 2 1 ack 40 ------- 0 3.1 1.0 10 39
+ 3.782172 1 2 tcp 1040 ------- 0 1.0 3.1 21 50
+ 3.782172 1 2 tcp 1040 ------- 0 1.0 3.1 22 51
- 3.782172 1 2 tcp 1040 ------- 0 1.0 3.1 18 47
r 3.790492 2 1 ack 40 ------- 0 3.1 1.0 11 40
+ 3.790492 1 2 tcp 1040 ------- 0 1.0 3.1 23 52
+ 3.790492 1 2 tcp 1040 ------- 0 1.0 3.1 24 53
- 3.790492 1 2 tcp 1040 ------- 0 1.0 3.1 19 48
r 3.798812 2 1 ack 40 ------- 0 3.1 1.0 12 41
+ 3.798812 1 2 tcp 1040 ------- 0 1.0 3.1 25 54
+ 3.798812 1 2 tcp 1040 ------- 0 1.0 3.1 26 55
- 3.798812 1 2 tcp 1040 ------- 0 1.0 3.1 20 49
r 3.807132 2 1 ack 40 ------- 0 3.1 1.0 13 42
+ 3.807132 1 2 tcp 1040 ------- 0 1.0 3.1 27 56
+ 3.807132 1 2 tcp 1040 ------- 0 1.0 3.1 28 57
- 3.807132 1 2 tcp 1040 ------- 0 1.0 3.1 21 50
r 3.815452 2 1 ack 40 ------- 0 3.1 1.0 14 43
+ 3.815452 1 2 tcp 1040 ------- 0 1.0 3.1 29 58
+ 3.815452 1 2 tcp 1040 ------- 0 1.0 3.1 30 59
- 3.815452 1 2 tcp 1040 ------- 0 1.0 3.1 22 51
- 3.823772 1 2 tcp 1040 ------- 0 1.0 3.1 23 52
- 3.832092 1 2 tcp 1040 ------- 0 1.0 3.1 24 53
- 3.840412 1 2 tcp 1040 ------- 0 1.0 3.1 25 54
- 3.848732 1 2 tcp 1040 ------- 0 1.0 3.1 26 55
- 3.857052 1 2 tcp 1040 ------- 0 1.0 3.1 27 56
- 3.865372 1 2 tcp 1040 ------- 0 1.0 3.1 28 57
r 3.865532 1 2 tcp 1040 ------- 0 1.0 3.1 15 44
+ 3.865532 2 3 tcp 1040 ------- 0 1.0 3.1 15 44
- 3.865532 2 3 tcp 1040 ------- 0 1.0 3.1 15 44
- 3.873692 1 2 tcp 1040 ------- 0 1.0 3.1 29 58
r 3.873852 1 2 tcp 1040 ------- 0 1.0 3.1 16 45
+ 3.873852 2 3 tcp 1040 ------- 0 1.0 3.1 16 45
- 3.873852 2 3 tcp 1040 ------- 0 1.0 3.1 16 45
- 3.882012 1 2 tcp 1040 ------- 0 1.0 3.1 30 59
r 3.882172 1 2 tcp 1040 ------- 0 1.0 3.1 17 46
+ 3.882172 2 3 tcp 1040 ------- 0 1.0 3.1 17 46
- 3.882172 2 3 tcp 1040 ------- 0 1.0 3.1 17 46
r 3.890492 1 2 tcp 1040 ------- 0 1.0 3.1 18 47
+ 3.890492 2 3 tcp 1040 ------- 0 1.0 3.1 18 47
- 3.890492 2 3 tcp 1040 ------- 0 1.0 3.1 18 47
r 3.898812 1 2 tcp 1040 ------- 0 1.0 3.1 19 48
+ 3.898812 2 3 tcp 1040 ------- 0 1.0 3.1 19 48
- 3.898812 2 3 tcp 1040 ------- 0 1.0 3.1 19 48
r 3.907132 1 2 tcp 1040 ------- 0 1.0 3.1 20 49
+ 3.907132 2 3 tcp 1040 ------- 0 1.0 3.1 20 49
- 3.907132 2 3 tcp 1040 ------- 0 1.0 3.1 20 49
r 3.915452 1 2 tcp 1040 ------- 0 1.0 3.1 21 50
+ 3.915452 2 3 tcp 1040 ------- 0 1.0 3.1 21 50
- 3.915452 2 3 tcp 1040 ------- 0 1.0 3.1 21 50
r 3.923772 1 2 tcp 1040 ------- 0 1.0 3.1 22 51
+ 3.923772 2 3 tcp 1040 ------- 0 1.0 3.1 22 51
- 3.923772 2 3 tcp 1040 ------- 0 1.0 3.1 22 51
r 3.932092 1 2 tcp 1040 ------- 0 1.0 3.1 23 52
+ 3.932092 2 3 tcp 1040 ------- 0 1.0 3.1 23 52
- 3.932092 2 3 tcp 1040 ------- 0 1.0 3.1 23 52
r 3.940412 1 2 tcp 1040 ------- 0 1.0 3.1 24 53
+ 3.940412 2 3 tcp 1040 ------- 0 1.0 3.1 24 53
- 3.940412 2 3 tcp 1040 ------- 0 1.0 3.1 24 53
r 3.948732 1 2 tcp 1040 ------- 0 1.0 3.1 25 54
+ 3.948732 2 3 tcp 1040 ------- 0 1.0 3.1 25 54
- 3.948732 2 3 tcp 1040 ------- 0 1.0 3.1 25 54
r 3.957052 1 2 tcp 1040 ------- 0 1.0 3.1 26 55
+ 3.957052 2 3 tcp 1040 ------- 0 1.0 3.1 26 55
- 3.957052 2 3 tcp 1040 ------- 0 1.0 3.1 26 55
r 3.965372 1 2 tcp 1040 ------- 0 1.0 3.1 27 56
+ 3.965372 2 3 tcp 1040 ------- 0 1.0 3.1 27 56
- 3.965372 2 3 tcp 1040 ------- 0 1.0 3.1 27 56
r 3.973692 1 2 tcp 1040 ------- 0 1.0 3.1 28 57
+ 3.973692 2 3 tcp 1040 ------- 0 1.0 3.1 28 57
- 3.973692 2 3 tcp 1040 ------- 0 1.0 3.1 28 57
r 3.973852 2 3 tcp 1040 ------- 0 1.0 3.1 15 44
+ 3.973852 3 2 ack 40 ------- 0 3.1 1.0 15 60
- 3.973852 3 2 ack 40 ------- 0 3.1 1.0 15 60
r 3.982012 1 2 tcp 1040 ------- 0 1.0 3.1 29 58
+ 3.982012 2 3 tcp 1040 ------- 0 1.0 3.1 29 58
- 3.982012 2 3 tcp 1040 ------- 0 1.0 3.1 29 58
r 3.982172 2 3 tcp 1040 ------- 0 1.0 3.1 16 45
+ 3.982172 3 2 ack 40 ------- 0 3.1 1.0 16 61
- 3.982172 3 2 ack 40 ------- 0 3.1 1.0 16 61
r 3.990332 1 2 tcp 1040 ------- 0 1.0 3.1 30 59
+ 3.990332 2 3 tcp 1040 ------- 0 1.0 3.1 30 59
- 3.990332 2 3 tcp 1040 ------- 0 1.0 3.1 30 59
r 3.990492 2 3 tcp 1040 ------- 0 1.0 3.1 17 46
+ 3.990492 3 2 ack 40 ------- 0 3.1 1.0 17 62
- 3.990492 3 2 ack 40 ------- 0 3.1 1.0 17 62
r 3.998812 2 3 tcp 1040 ------- 0 1.0 3.1 18 47
+ 3.998812 3 2 ack 40 ------- 0 3.1 1.0 18 63
- 3.998812 3 2 ack 40 ------- 0 3.1 1.0 18 63
r 4.007132 2 3 tcp 1040 ------- 0 1.0 3.1 19 48
+ 4.007132 3 2 ack 40 ------- 0 3.1 1.0 19 64
- 4.007132 3 2 ack 40 ------- 0 3.1 1.0 19 64
r 4.015452 2 3 tcp 1040 ------- 0 1.0 3.1 20 49
+ 4.015452 3 2 ack 40 ------- 0 3.1 1.0 20 65
- 4.015452 3 2 ack 40 ------- 0 3.1 1.0 20 65
r 4.023772 2 3 tcp 1040 ------- 0 1.0 3.1 21 50
+ 4.023772 3 2 ack 40 ------- 0 3.1 1.0 21 66
- 4.023772 3 2 ack 40 ------- 0 3.1 1.0 21 66
r 4.032092 2 3 tcp 1040 ------- 0 1.0 3.1 22 51
+ 4.032092 3 2 ack 40 ------- 0 3.1 1.0 22 67
- 4.032092 3 2 ack 40 ------- 0 3.1 1.0 22 67
r 4.040412 2 3 tcp 1040 ------- 0 1.0 3.1 23 52
+ 4.040412 3 2 ack 40 ------- 0 3.1 1.0 23 68
- 4.040412 3 2 ack 40 ------- 0 3.1 1.0 23 68
r 4.048732 2 3 tcp 1040 ------- 0 1.0 3.1 24 53
+ 4.048732 3 2 ack 40 ------- 0 3.1 1.0 24 69
- 4.048732 3 2 ack 40 ------- 0 3.1 1.0 24 69
r 4.057052 2 3 tcp 1040 ------- 0 1.0 3.1 25 54
+ 4.057052 3 2 ack 40 ------- 0 3.1 1.0 25 70
- 4.057052 3 2 ack 40 ------- 0 3.1 1.0 25 70
r 4.065372 2 3 tcp 1040 ------- 0 1.0 3.1 26 55
+ 4.065372 3 2 ack 40 ------- 0 3.1 1.0 26 71
- 4.065372 3 2 ack 40 ------- 0 3.1 1.0 26 71
r 4.073692 2 3 tcp 1040 ------- 0 1.0 3.1 27 56
+ 4.073692 3 2 ack 40 ------- 0 3.1 1.0 27 72
- 4.073692 3 2 ack 40 ------- 0 3.1 1.0 27 72
r 4.074172 3 2 ack 40 ------- 0 3.1 1.0 15 60
+ 4.074172 2 1 ack 40 ------- 0 3.1 1.0 15 60
- 4.074172 2 1 ack 40 ------- 0 3.1 1.0 15 60
r 4.082012 2 3 tcp 1040 ------- 0 1.0 3.1 28 57
+ 4.082012 3 2 ack 40 ------- 0 3.1 1.0 28 73
- 4.082012 3 2 ack 40 ------- 0 3.1 1.0 28 73
r 4.082492 3 2 ack 40 ------- 0 3.1 1.0 16 61
+ 4.082492 2 1 ack 40 ------- 0 3.1 1.0 16 61
- 4.082492 2 1 ack 40 ------- 0 3.1 1.0 16 61
r 4.090332 2 3 tcp 1040 ------- 0 1.0 3.1 29 58
+ 4.090332 3 2 ack 40 ------- 0 3.1 1.0 29 74
- 4.090332 3 2 ack 40 ------- 0 3.1 1.0 29 74
r 4.090812 3 2 ack 40 ------- 0 3.1 1.0 17 62
+ 4.090812 2 1 ack 40 ------- 0 3.1 1.0 17 62
- 4.090812 2 1 ack 40 ------- 0 3.1 1.0 17 62
r 4.098652 2 3 tcp 1040 ------- 0 1.0 3.1 30 59
+ 4.098652 3 2 ack 40 ------- 0 3.1 1.0 30 75
- 4.098652 3 2 ack 40 ------- 0 3.1 1.0 30 75
r 4.099132 3 2 ack 40 ------- 0 3.1 1.0 18 63
+ 4.099132 2 1 ack 40 ------- 0 3.1 1.0 18 63
- 4.099132 2 1 ack 40 ------- 0 3.1 1.0 18 63
r 4.107452 3 2 ack 40 ------- 0 3.1 1.0 19 64
+ 4.107452 2 1 ack 40 ------- 0 3.1 1.0 19 64
- 4.107452 2 1 ack 40 ------- 0 3.1 1.0 19 64
r 4.115772 3 2 ack 40 ------- 0 3.1 1.0 20 65
+ 4.115772 2 1 ack 40 ------- 0 3.1 1.0 20 65
- 4.115772 2 1 ack 40 ------- 0 3.1 1.0 20 65
r 4.124092 3 2 ack 40 ------- 0 3.1 1.0 21 66
+ 4.124092 2 1 ack 40 ------- 0 3.1 1.0 21 66
- 4.124092 2 1 ack 40 ------- 0 3.1 1.0 21 66
r 4.132412 3 2 ack 40 ------- 0 3.1 1.0 22 67
+ 4.132412 2 1 ack 40 ------- 0 3.1 1.0 22 67
- 4.132412 2 1 ack 40 ------- 0 3.1 1.0 22 67
r 4.140732 3 2 ack 40 ------- 0 3.1 1.0 23 68
+ 4.140732 2 1 ack 40 ------- 0 3.1 1.0 23 68
- 4.140732 2 1 ack 40 ------- 0 3.1 1.0 23 68
r 4.149052 3 2 ack 40 ------- 0 3.1 1.0 24 69
+ 4.149052 2 1 ack 40 ------- 0 3.1 1.0 24 69
- 4.149052 2 1 ack 40 ------- 0 3.1 1.0 24 69
r 4.157372 3 2 ack 40 ------- 0 3.1 1.0 25 70
+ 4.157372 2 1 ack 40 ------- 0 3.1 1.0 25 70
- 4.157372 2 1 ack 40 ------- 0 3.1 1.0 25 70
r 4.165692 3 2 ack 40 ------- 0 3.1 1.0 26 71
+ 4.165692 2 1 ack 40 ------- 0 3.1 1.0 26 71
- 4.165692 2 1 ack 40 ------- 0 3.1 1.0 26 71
r 4.174012 3 2 ack 40 ------- 0 3.1 1.0 27 72
+ 4.174012 2 1 ack 40 ------- 0 3.1 1.0 27 72
- 4.174012 2 1 ack 40 ------- 0 3.1 1.0 27 72
r 4.174492 2 1 ack 40 ------- 0 3.1 1.0 15 60
+ 4.174492 1 2 tcp 1040 ------- 0 1.0 3.1 31 76
- 4.174492 1 2 tcp 1040 ------- 0 1.0 3.1 31 76
+ 4.174492 1 2 tcp 1040 ------- 0 1.0 3.1 32 77
r 4.182332 3 2 ack 40 ------- 0 3.1 1.0 28 73
+ 4.182332 2 1 ack 40 ------- 0 3.1 1.0 28 73
- 4.182332 2 1 ack 40 ------- 0 3.1 1.0 28 73
r 4.182812 2 1 ack 40 ------- 0 3.1 1.0 16 61
+ 4.182812 1 2 tcp 1040 ------- 0 1.0 3.1 33 78
+ 4.182812 1 2 tcp 1040 ------- 0 1.0 3.1 34 79
- 4.182812 1 2 tcp 1040 ------- 0 1.0 3.1 32 77
r 4.190652 3 2 ack 40 ------- 0 3.1 1.0 29 74
+ 4.190652 2 1 ack 40 ------- 0 3.1 1.0 29 74
- 4.190652 2 1 ack 40 ------- 0 3.1 1.0 29 74
r 4.191132 2 1 ack 40 ------- 0 3.1 1.0 17 62
+ 4.191132 1 2 tcp 1040 ------- 0 1.0 3.1 35 80
+ 4.191132 1 2 tcp 1040 ------- 0 1.0 3.1 36 81
- 4.191132 1 2 tcp 1040 ------- 0 1.0 3.1 33 78
r 4.198972 3 2 ack 40 ------- 0 3.1 1.0 30 75
+ 4.198972 2 1 ack 40 ------- 0 3.1 1.0 30 75
- 4.198972 2 1 ack 40 ------- 0 3.1 1.0 30 75
r 4.199452 2 1 ack 40 ------- 0 3.1 1.0 18 63
+ 4.199452 1 2 tcp 1040 ------- 0 1.0 3.1 37 82
+ 4.199452 1 2 tcp 1040 ------- 0 1.0 3.1 38 83
- 4.199452 1 2 tcp 1040 ------- 0 1.0 3.1 34 79
r 4.207772 2 1 ack 40 ------- 0 3.1 1.0 19 64
+ 4.207772 1 2 tcp 1040 ------- 0 1.0 3.1 39 84
- 4.207772 1 2 tcp 1040 ------- 0 1.0 3.1 35 80
r 4.216092 2 1 ack 40 ------- 0 3.1 1.0 20 65
+ 4.216092 1 2 tcp 1040 ------- 0 1.0 3.1 40 85
- 4.216092 1 2 tcp 1040 ------- 0 1.0 3.1 36 81
r 4.224412 2 1 ack 40 ------- 0 3.1 1.0 21 66
+ 4.224412 1 2 tcp 1040 ------- 0 1.0 3.1 41 86
- 4.224412 1 2 tcp 1040 ------- 0 1.0 3.1 37 82
r 4.232732 2 1 ack 40 ------- 0 3.1 1.0 22 67
+ 4.232732 1 2 tcp 1040 ------- 0 1.0 3.1 42 87
- 4.232732 1 2 tcp 1040 ------- 0 1.0 3.1 38 83
r 4.241052 2 1 ack 40 ------- 0 3.1 1.0 23 68
+ 4.241052 1 2 tcp 1040 ------- 0 1.0 3.1 43 88
- 4.241052 1 2 tcp 1040 ------- 0 1.0 3.1 39 84
r 4.249372 2 1 ack 40 ------- 0 3.1 1.0 24 69
+ 4.249372 1 2 tcp 1040 ------- 0 1.0 3.1 44 89
- 4.249372 1 2 tcp 1040 ------- 0 1.0 3.1 40 85
r 4.257692 2 1 ack 40 ------- 0 3.1 1.0 25 70
+ 4.257692 1 2 tcp 1040 ------- 0 1.0 3.1 45 90
- 4.257692 1 2 tcp 1040 ------- 0 1.0 3.1 41 86
r 4.266012 2 1 ack 40 ------- 0 3.1 1.0 26 71
+ 4.266012 1 2 tcp 1040 ------- 0 1.0 3.1 46 91
- 4.266012 1 2 tcp 1040 ------- 0 1.0 3.1 42 87
r 4.274332 2 1 ack 40 ------- 0 3.1 1.0 27 72
+ 4.274332 1 2 tcp 1040 ------- 0 1.0 3.1 47 92
- 4.274332 1 2 tcp 1040 ------- 0 1.0 3.1 43 88
r 4.282652 2 1 ack 40 ------- 0 3.1 1.0 28 73
+ 4.282652 1 2 tcp 1040 ------- 0 1.0 3.1 48 93
- 4.282652 1 2 tcp 1040 ------- 0 1.0 3.1 44 89
r 4.282812 1 2 tcp 1040 ------- 0 1.0 3.1 31 76
+ 4.282812 2 3 tcp 1040 ------- 0 1.0 3.1 31 76
- 4.282812 2 3 tcp 1040 ------- 0 1.0 3.1 31 76
r 4.290972 2 1 ack 40 ------- 0 3.1 1.0 29 74
+ 4.290972 1 2 tcp 1040 ------- 0 1.0 3.1 49 94
- 4.290972 1 2 tcp 1040 ------- 0 1.0 3.1 45 90
r 4.291132 1 2 tcp 1040 ------- 0 1.0 3.1 32 77
+ 4.291132 2 3 tcp 1040 ------- 0 1.0 3.1 32 77
- 4.291132 2 3 tcp 1040 ------- 0 1.0 3.1 32 77
r 4.299292 2 1 ack 40 ------- 0 3.1 1.0 30 75
+ 4.299292 1 2 tcp 1040 ------- 0 1.0 3.1 50 95
- 4.299292 1 2 tcp 1040 ------- 0 1.0 3.1 46 91
r 4.299452 1 2 tcp 1040 ------- 0 1.0 3.1 33 78
+ 4.299452 2 3 tcp 1040 ------- 0 1.0 3.1 33 78
- 4.299452 2 3 tcp 1040 ------- 0 1.0 3.1 33 78
- 4.307612 1 2 tcp 1040 ------- 0 1.0 3.1 47 92
r 4.307772 1 2 tcp 1040 ------- 0 1.0 3.1 34 79
+ 4.307772 2 3 tcp 1040 ------- 0 1.0 3.1 34 79
- 4.307772 2 3 tcp 1040 ------- 0 1.0 3.1 34 79
- 4.315932 1 2 tcp 1040 ------- 0 1.0 3.1 48 93
r 4.316092 1 2 tcp 1040 ------- 0 1.0 3.1 35 80
+ 4.316092 2 3 tcp 1040 ------- 0 1.0 3.1 35 80
- 4.316092 2 3 tcp 1040 ------- 0 1.0 3.1 35 80
- 4.324252 1 2 tcp 1040 ------- 0 1.0 3.1 49 94
r 4.324412 1 2 tcp 1040 ------- 0 1.0 3.1 36 81
+ 4.324412 2 3 tcp 1040 ------- 0 1.0 3.1 36 81
- 4.324412 2 3 tcp 1040 ------- 0 1.0 3.1 36 81
- 4.332572 1 2 tcp 1040 ------- 0 1.0 3.1 50 95
r 4.332732 1 2 tcp 1040 ------- 0 1.0 3.1 37 82
+ 4.332732 2 3 tcp 1040 ------- 0 1.0 3.1 37 82
- 4.332732 2 3 tcp 1040 ------- 0 1.0 3.1 37 82
r 4.341052 1 2 tcp 1040 ------- 0 1.0 3.1 38 83
+ 4.341052 2 3 tcp 1040 ------- 0 1.0 3.1 38 83
- 4.341052 2 3 tcp 1040 ------- 0 1.0 3.1 38 83
r 4.349372 1 2 tcp 1040 ------- 0 1.0 3.1 39 84
+ 4.349372 2 3 tcp 1040 ------- 0 1.0 3.1 39 84
- 4.349372 2 3 tcp 1040 ------- 0 1.0 3.1 39 84
r 4.357692 1 2 tcp 1040 ------- 0 1.0 3.1 40 85
+ 4.357692 2 3 tcp 1040 ------- 0 1.0 3.1 40 85
- 4.357692 2 3 tcp 1040 ------- 0 1.0 3.1 40 85
r 4.366012 1 2 tcp 1040 ------- 0 1.0 3.1 41 86
+ 4.366012 2 3 tcp 1040 ------- 0 1.0 3.1 41 86
- 4.366012 2 3 tcp 1040 ------- 0 1.0 3.1 41 86
r 4.374332 1 2 tcp 1040 ------- 0 1.0 3.1 42 87
+ 4.374332 2 3 tcp 1040 ------- 0 1.0 3.1 42 87
- 4.374332 2 3 tcp 1040 ------- 0 1.0 3.1 42 87
r 4.382652 1 2 tcp 1040 ------- 0 1.0 3.1 43 88
+ 4.382652 2 3 tcp 1040 ------- 0 1.0 3.1 43 88
- 4.382652 2 3 tcp 1040 ------- 0 1.0 3.1 43 88
r 4.390972 1 2 tcp 1040 ------- 0 1.0 3.1 44 89
+ 4.390972 2 3 tcp 1040 ------- 0 1.0 3.1 44 89
- 4.390972 2 3 tcp 1040 ------- 0 1.0 3.1 44 89
r 4.391132 2 3 tcp 1040 ------- 0 1.0 3.1 31 76
+ 4.391132 3 2 ack 40 ------- 0 3.1 1.0 31 96
- 4.391132 3 2 ack 40 ------- 0 3.1 1.0 31 96
r 4.399292 1 2 tcp 1040 ------- 0 1.0 3.1 45 90
+ 4.399292 2 3 tcp 1040 ------- 0 1.0 3.1 45 90
- 4.399292 2 3 tcp 1040 ------- 0 1.0 3.1 45 90
r 4.399452 2 3 tcp 1040 ------- 0 1.0 3.1 32 77
+ 4.399452 3 2 ack 40 ------- 0 3.1 1.0 32 97
- 4.399452 3 2 ack 40 ------- 0 3.1 1.0 32 97
r 4.407612 1 2 tcp 1040 ------- 0 1.0 3.1 46 91
+ 4.407612 2 3 tcp 1040 ------- 0 1.0 3.1 46 91
- 4.407612 2 3 tcp 1040 ------- 0 1.0 3.1 46 91
r 4.407772 2 3 tcp 1040 ------- 0 1.0 3.1 33 78
+ 4.407772 3 2 ack 40 ------- 0 3.1 1.0 33 98
- 4.407772 3 2 ack 40 ------- 0 3.1 1.0 33 98
r 4.415932 1 2 tcp 1040 ------- 0 1.0 3.1 47 92
+ 4.415932 2 3 tcp 1040 ------- 0 1.0 3.1 47 92
- 4.415932 2 3 tcp 1040 ------- 0 1.0 3.1 47 92
r 4.416092 2 3 tcp 1040 ------- 0 1.0 3.1 34 79
+ 4.416092 3 2 ack 40 ------- 0 3.1 1.0 34 99
- 4.416092 3 2 ack 40 ------- 0 3.1 1.0 34 99
r 4.424252 1 2 tcp 1040 ------- 0 1.0 3.1 48 93
+ 4.424252 2 3 tcp 1040 ------- 0 1.0 3.1 48 93
- 4.424252 2 3 tcp 1040 ------- 0 1.0 3.1 48 93
r 4.424412 2 3 tcp 1040 ------- 0 1.0 3.1 35 80
+ 4.424412 3 2 ack 40 ------- 0 3.1 1.0 35 100
- 4.424412 3 2 ack 40 ------- 0 3.1 1.0 35 100
r 4.432572 1 2 tcp 1040 ------- 0 1.0 3.1 49 94
+ 4.432572 2 3 tcp 1040 ------- 0 1.0 3.1 49 94
- 4.432572 2 3 tcp 1040 ------- 0 1.0 3.1 49 94
r 4.432732 2 3 tcp 1040 ------- 0 1.0 3.1 36 81
+ 4.432732 3 2 ack 40 ------- 0 3.1 1.0 36 101
- 4.432732 3 2 ack 40 ------- 0 3.1 1.0 36 101
r 4.440892 1 2 tcp 1040 ------- 0 1.0 3.1 50 95
+ 4.440892 2 3 tcp 1040 ------- 0 1.0 3.1 50 95
- 4.440892 2 3 tcp 1040 ------- 0 1.0 3.1 50 95
r 4.441052 2 3 tcp 1040 ------- 0 1.0 3.1 37 82
+ 4.441052 3 2 ack 40 ------- 0 3.1 1.0 37 102
- 4.441052 3 2 ack 40 ------- 0 3.1 1.0 37 102
r 4.449372 2 3 tcp 1040 ------- 0 1.0 3.1 38 83
+ 4.449372 3 2 ack 40 ------- 0 3.1 1.0 38 103
- 4.449372 3 2 ack 40 ------- 0 3.1 1.0 38 103
r 4.457692 2 3 tcp 1040 ------- 0 1.0 3.1 39 84
+ 4.457692 3 2 ack 40 ------- 0 3.1 1.0 39 104
- 4.457692 3 2 ack 40 ------- 0 3.1 1.0 39 104
r 4.466012 2 3 tcp 1040 ------- 0 1.0 3.1 40 85
+ 4.466012 3 2 ack 40 ------- 0 3.1 1.0 40 105
- 4.466012 3 2 ack 40 ------- 0 3.1 1.0 40 105
r 4.474332 2 3 tcp 1040 ------- 0 1.0 3.1 41 86
+ 4.474332 3 2 ack 40 ------- 0 3.1 1.0 41 106
- 4.474332 3 2 ack 40 ------- 0 3.1 1.0 41 106
r 4.482652 2 3 tcp 1040 ------- 0 1.0 3.1 42 87
+ 4.482652 3 2 ack 40 ------- 0 3.1 1.0 42 107
- 4.482652 3 2 ack 40 ------- 0 3.1 1.0 42 107
r 4.490972 2 3 tcp 1040 ------- 0 1.0 3.1 43 88
+ 4.490972 3 2 ack 40 ------- 0 3.1 1.0 43 108
- 4.490972 3 2 ack 40 ------- 0 3.1 1.0 43 108
r 4.491452 3 2 ack 40 ------- 0 3.1 1.0 31 96
+ 4.491452 2 1 ack 40 ------- 0 3.1 1.0 31 96
- 4.491452 2 1 ack 40 ------- 0 3.1 1.0 31 96
r 4.499292 2 3 tcp 1040 ------- 0 1.0 3.1 44 89
+ 4.499292 3 2 ack 40 ------- 0 3.1 1.0 44 109
- 4.499292 3 2 ack 40 ------- 0 3.1 1.0 44 109
r 4.499772 3 2 ack 40 ------- 0 3.1 1.0 32 97
+ 4.499772 2 1 ack 40 ------- 0 3.1 1.0 32 97
- 4.499772 2 1 ack 40 ------- 0 3.1 1.0 32 97
r 4.507612 2 3 tcp 1040 ------- 0 1.0 3.1 45 90
+ 4.507612 3 2 ack 40 ------- 0 3.1 1.0 45 110
- 4.507612 3 2 ack 40 ------- 0 3.1 1.0 45 110
r 4.508092 3 2 ack 40 ------- 0 3.1 1.0 33 98
+ 4.508092 2 1 ack 40 ------- 0 3.1 1.0 33 98
- 4.508092 2 1 ack 40 ------- 0 3.1 1.0 33 98
r 4.515932 2 3 tcp 1040 ------- 0 1.0 3.1 46 91
+ 4.515932 3 2 ack 40 ------- 0 3.1 1.0 46 111
- 4.515932 3 2 ack 40 ------- 0 3.1 1.0 46 111
r 4.516412 3 2 ack 40 ------- 0 3.1 1.0 34 99
+ 4.516412 2 1 ack 40 ------- 0 3.1 1.0 34 99
- 4.516412 2 1 ack 40 ------- 0 3.1 1.0 34 99
r 4.524252 2 3 tcp 1040 ------- 0 1.0 3.1 47 92
+ 4.524252 3 2 ack 40 ------- 0 3.1 1.0 47 112
- 4.524252 3 2 ack 40 ------- 0 3.1 1.0 47 112
r 4.524732 3 2 ack 40 ------- 0 3.1 1.0 35 100
+ 4.524732 2 1 ack 40 ------- 0 3.1 1.0 35 100
- 4.524732 2 1 ack 40 ------- 0 3.1 1.0 35 100
r 4.532572 2 3 tcp 1040 ------- 0 1.0 3.1 48 93
+ 4.532572 3 2 ack 40 ------- 0 3.1 1.0 48 113
- 4.532572 3 2 ack 40 ------- 0 3.1 1.0 48 113
r 4.533052 3 2 ack 40 ------- 0 3.1 1.0 36 101
+ 4.533052 2 1 ack 40 ------- 0 3.1 1.0 36 101
- 4.533052 2 1 ack 40 ------- 0 3.1 1.0 36 101
r 4.540892 2 3 tcp 1040 ------- 0 1.0 3.1 49 94
+ 4.540892 3 2 ack 40 ------- 0 3.1 1.0 49 114
- 4.540892 3 2 ack 40 ------- 0 3.1 1.0 49 114
r 4.541372 3 2 ack 40 ------- 0 3.1 1.0 37 102
+ 4.541372 2 1 ack 40 ------- 0 3.1 1.0 37 102
- 4.541372 2 1 ack 40 ------- 0 3.1 1.0 37 102
r 4.549212 2 3 tcp 1040 ------- 0 1.0 3.1 50 95
+ 4.549212 3 2 ack 40 ------- 0 3.1 1.0 50 115
- 4.549212 3 2 ack 40 ------- 0 3.1 1.0 50 115
r 4.549692 3 2 ack 40 ------- 0 3.1 1.0 38 103
+ 4.549692 2 1 ack 40 ------- 0 3.1 1.0 38 103
- 4.549692 2 1 ack 40 ------- 0 3.1 1.0 38 103
r 4.558012 3 2 ack 40 ------- 0 3.1 1.0 39 104
+ 4.558012 2 1 ack 40 ------- 0 3.1 1.0 39 104
- 4.558012 2 1 ack 40 ------- 0 3.1 1.0 39 104
r 4.566332 3 2 ack 40 ------- 0 3.1 1.0 40 105